LAMMPS (15 Sep 2022)
OMP_NUM_THREADS environment is not set. Defaulting to 1 thread. (src/comm.cpp:98)
  using 1 OpenMP thread(s) per MPI task
package gpu 0 binsize 12.0
# LAMMPS Script for deform
# Generated 12/17/2022

# INIT PARAMS & READ CONF
include   "/work_bgfs/h/harshad/simulation_9/quiescent_script/filler_repulsive/system.init"
# UNITS
units		lj
dimension	3
atom_style	bond

# INPUT FILE
pair_style	lj/cut 2.5
bond_style	hybrid harmonic fene
read_data /work_bgfs/h/harshad/simulation_9/np7/5000chain/150phr/9_stretching/filler_repulsive/quiescent/thermal_replicates/3.npt.data
Reading data file ...
  orthogonal box = (0.41147114 0.41147114 0.41147114) to (59.588529 59.588529 59.588529)
  3 by 2 by 3 MPI processor grid
  reading atoms ...
  225980 atoms
  reading velocities ...
  225980 velocities
  scanning bonds ...
  16 = max bonds/atom
  reading bonds ...
  923860 bonds
Finding 1-2 1-3 1-4 neighbors ...
  special bond factors lj:    0        0        0       
  special bond factors coul:  0        0        0       
    19 = max # of 1-2 neighbors
   285 = max # of 1-3 neighbors
  4477 = max # of 1-4 neighbors
   201 = max # of special neighbors
  special bonds CPU = 0.307 seconds
  read_data CPU = 2.898 seconds
include   "/work_bgfs/h/harshad/simulation_9/quiescent_script/filler_repulsive/system.kappa1000.settings"
# ATOM TYPE
mass  1  1.0 #backbone
mass  2  1.0 #endmer
mass  3  1.0 #crosslinker
mass  4  1.0 #outer shell
mass  5  1.0 #inner shell 2
mass  6  1.0 #inner-most shell
mass  7  1.0 #center bead
mass  8  1.0 #endmer post crosslinking
mass  9  1.0 #crosslinker post crosslinking

# BOND
bond_coeff 1 harmonic 1000 0.951057
bond_coeff 2 harmonic 1000 1.000000
bond_coeff 3 harmonic 1000 1.380039
bond_coeff 4 harmonic 1000 1.414214
bond_coeff 5 fene 30.0 1.50 1.0 1.0
special_bonds lj 0.0 1.0 1.0
Finding 1-2 1-3 1-4 neighbors ...
  special bond factors lj:    0        1        1       
  special bond factors coul:  0        0        0       
    19 = max # of 1-2 neighbors
   285 = max # of 1-3 neighbors
  4477 = max # of 1-4 neighbors
   201 = max # of special neighbors
  special bonds CPU = 0.303 seconds

# PAIR
variable rcut equal 2^(1/6)
pair_coeff  1*3 1*9 1 1
pair_coeff  4*7 4*7 1 1 ${rcut}
pair_coeff  4*7 4*7 1 1 1.12246204830937
pair_coeff  4*9 8*9 1 1

pair_modify  shift yes
neigh_modify delay 1 check yes

# MAKE GROUPS
group polymer type 1 2 3 8 9
102500 atoms in group polymer
#group ins     type 1
#group strand  type 1 2 8
#group ends    type 2 8
#group xlinks  type 3 9
group filler  type 4 5 6 7
123480 atoms in group filler

neighbor 1.5 multi
comm_modify     mode multi cutoff/multi 1 1.5 cutoff/multi * 2.8

# INPUTS FROM SBATCH
variable Temp          equal 1.0
variable gamma_total   equal 2.0
variable gamma_rate    equal 0.00005
variable dt            equal 0.001
variable Nfreq         equal 4000
variable Nrepeat_2     equal 100
variable Nevery_1      equal 1
variable Nrepeat_1     equal 1

variable Run           equal ${gamma_total}/${gamma_rate}/${dt}
variable Run           equal 2/${gamma_rate}/${dt}
variable Run           equal 2/5e-05/${dt}
variable Run           equal 2/5e-05/0.001

# RUN OPTIONS
run_style verlet
timestep  ${dt}
timestep  0.001

# RESTART
restart  ${Nfreq} cycle.1.restart cycle.2.restart
restart  4000 cycle.1.restart cycle.2.restart

# SAVE RESTARTS EVERY 10% EXTENSION
variable RestFreq      equal 0.1/${gamma_rate}/${dt}
variable RestFreq      equal 0.1/5e-05/${dt}
variable RestFreq      equal 0.1/5e-05/0.001
restart  ${RestFreq} deform.*.restart
restart  2000000 deform.*.restart

# COMPUTE ke/atom, pe/atom, pxx/atom, position and time-avg
compute     ke_atm          all     ke/atom
compute     p_atm           all     stress/atom NULL
compute     pe_atm          all     pe/atom
compute     ebond_atm       all     pe/atom bond
compute     posit_atm       all     property/atom x y z
fix         avg_ke_atm_1    all     ave/atom ${Nevery_1} ${Nrepeat_1} ${Nfreq} c_ke_atm
fix         avg_ke_atm_1    all     ave/atom 1 ${Nrepeat_1} ${Nfreq} c_ke_atm
fix         avg_ke_atm_1    all     ave/atom 1 1 ${Nfreq} c_ke_atm
fix         avg_ke_atm_1    all     ave/atom 1 1 4000 c_ke_atm
fix         avg_pxx_atm_1   all     ave/atom ${Nevery_1} ${Nrepeat_1} ${Nfreq} c_p_atm[*]
fix         avg_pxx_atm_1   all     ave/atom 1 ${Nrepeat_1} ${Nfreq} c_p_atm[*]
fix         avg_pxx_atm_1   all     ave/atom 1 1 ${Nfreq} c_p_atm[*]
fix         avg_pxx_atm_1   all     ave/atom 1 1 4000 c_p_atm[*]
fix         avg_pe_atm_1    all     ave/atom ${Nevery_1} ${Nrepeat_1} ${Nfreq} c_pe_atm
fix         avg_pe_atm_1    all     ave/atom 1 ${Nrepeat_1} ${Nfreq} c_pe_atm
fix         avg_pe_atm_1    all     ave/atom 1 1 ${Nfreq} c_pe_atm
fix         avg_pe_atm_1    all     ave/atom 1 1 4000 c_pe_atm
#fix         avg_posit_atm_1 all     ave/atom ${Nevery_1} ${Nrepeat_1} ${Nfreq} c_posit_atm[1] c_posit_atm[2] c_posit_atm[3]
dump        dump_1 all custom ${Nfreq} ${out_dir}traj.${Nevery_1}_${Nrepeat_1}_${Nfreq}.xyz mol type x y z f_avg_ke_atm_1 f_avg_pe_atm_1 f_avg_pxx_atm_1[*]
dump        dump_1 all custom 4000 ${out_dir}traj.${Nevery_1}_${Nrepeat_1}_${Nfreq}.xyz mol type x y z f_avg_ke_atm_1 f_avg_pe_atm_1 f_avg_pxx_atm_1[*]
dump        dump_1 all custom 4000 /shares_bgfs/dssimmons_data/harshad/deform/np7/150phr/filler_repulsive/replicate_3/work_bgfs--h--harshad--simulation_9--np7--5000chain--150phr--9_stretching--filler_repulsive--replicate_3--traj.${Nevery_1}_${Nrepeat_1}_${Nfreq}.xyz mol type x y z f_avg_ke_atm_1 f_avg_pe_atm_1 f_avg_pxx_atm_1[*]
dump        dump_1 all custom 4000 /shares_bgfs/dssimmons_data/harshad/deform/np7/150phr/filler_repulsive/replicate_3/work_bgfs--h--harshad--simulation_9--np7--5000chain--150phr--9_stretching--filler_repulsive--replicate_3--traj.1_${Nrepeat_1}_${Nfreq}.xyz mol type x y z f_avg_ke_atm_1 f_avg_pe_atm_1 f_avg_pxx_atm_1[*]
dump        dump_1 all custom 4000 /shares_bgfs/dssimmons_data/harshad/deform/np7/150phr/filler_repulsive/replicate_3/work_bgfs--h--harshad--simulation_9--np7--5000chain--150phr--9_stretching--filler_repulsive--replicate_3--traj.1_1_${Nfreq}.xyz mol type x y z f_avg_ke_atm_1 f_avg_pe_atm_1 f_avg_pxx_atm_1[*]
dump        dump_1 all custom 4000 /shares_bgfs/dssimmons_data/harshad/deform/np7/150phr/filler_repulsive/replicate_3/work_bgfs--h--harshad--simulation_9--np7--5000chain--150phr--9_stretching--filler_repulsive--replicate_3--traj.1_1_4000.xyz mol type x y z f_avg_ke_atm_1 f_avg_pe_atm_1 f_avg_pxx_atm_1[*]
dump_modify dump_1 append yes sort id

# COMPUTE a separate pe and ke for each group, AVG & SAVE
compute   pe_polymer    polymer reduce  sum c_pe_atm
compute   pe_filler     filler  reduce  sum c_pe_atm
compute   ebond_polymer polymer reduce  sum c_ebond_atm
compute   ebond_filler  filler  reduce  sum c_ebond_atm
compute   ke_polymer    polymer reduce  sum c_ke_atm
compute   ke_filler     filler  reduce  sum c_ke_atm
compute   pxx_polymer   polymer reduce  sum c_p_atm[1] c_p_atm[2] c_p_atm[3]
compute   pxx_filler    filler  reduce  sum c_p_atm[1] c_p_atm[2] c_p_atm[3]
compute   pxy_polymer   polymer reduce  sum c_p_atm[4] c_p_atm[5] c_p_atm[6]
compute   pxy_filler    filler  reduce  sum c_p_atm[4] c_p_atm[5] c_p_atm[6]
#compute   pxx_all       all     reduce  sum c_p_atm
fix 		  avgEnergy     all     ave/time ${Nevery_1} ${Nrepeat_2} ${Nfreq} c_pe_polymer c_ke_polymer c_ebond_polymer c_pe_filler c_ke_filler c_ebond_filler c_pxy_polymer[1] c_pxy_polymer[2] c_pxy_polymer[3] c_pxy_filler[1] c_pxy_filler[2] c_pxy_filler[3]   file energy.avg.csv
fix 		  avgEnergy     all     ave/time 1 ${Nrepeat_2} ${Nfreq} c_pe_polymer c_ke_polymer c_ebond_polymer c_pe_filler c_ke_filler c_ebond_filler c_pxy_polymer[1] c_pxy_polymer[2] c_pxy_polymer[3] c_pxy_filler[1] c_pxy_filler[2] c_pxy_filler[3]   file energy.avg.csv
fix 		  avgEnergy     all     ave/time 1 100 ${Nfreq} c_pe_polymer c_ke_polymer c_ebond_polymer c_pe_filler c_ke_filler c_ebond_filler c_pxy_polymer[1] c_pxy_polymer[2] c_pxy_polymer[3] c_pxy_filler[1] c_pxy_filler[2] c_pxy_filler[3]   file energy.avg.csv
fix 		  avgEnergy     all     ave/time 1 100 4000 c_pe_polymer c_ke_polymer c_ebond_polymer c_pe_filler c_ke_filler c_ebond_filler c_pxy_polymer[1] c_pxy_polymer[2] c_pxy_polymer[3] c_pxy_filler[1] c_pxy_filler[2] c_pxy_filler[3]   file energy.avg.csv
fix       avgPxx_all    all     ave/time ${Nevery_1} ${Nfreq} ${Nfreq}     c_pxx_polymer[1] c_pxx_polymer[2] c_pxx_polymer[3] c_pxx_filler[1] c_pxx_filler[2] c_pxx_filler[3]                                                                                    file pxx.all.avg.csv
fix       avgPxx_all    all     ave/time 1 ${Nfreq} ${Nfreq}     c_pxx_polymer[1] c_pxx_polymer[2] c_pxx_polymer[3] c_pxx_filler[1] c_pxx_filler[2] c_pxx_filler[3]                                                                                    file pxx.all.avg.csv
fix       avgPxx_all    all     ave/time 1 4000 ${Nfreq}     c_pxx_polymer[1] c_pxx_polymer[2] c_pxx_polymer[3] c_pxx_filler[1] c_pxx_filler[2] c_pxx_filler[3]                                                                                    file pxx.all.avg.csv
fix       avgPxx_all    all     ave/time 1 4000 4000     c_pxx_polymer[1] c_pxx_polymer[2] c_pxx_polymer[3] c_pxx_filler[1] c_pxx_filler[2] c_pxx_filler[3]                                                                                    file pxx.all.avg.csv

# TIME-AVG Ly
variable Ly equal ly
fix       avgLy         all     ave/time ${Nevery_1} ${Nfreq} ${Nfreq}     v_Ly  file Ly.avg.csv
fix       avgLy         all     ave/time 1 ${Nfreq} ${Nfreq}     v_Ly  file Ly.avg.csv
fix       avgLy         all     ave/time 1 4000 ${Nfreq}     v_Ly  file Ly.avg.csv
fix       avgLy         all     ave/time 1 4000 4000     v_Ly  file Ly.avg.csv

# SIMULATION FIXES
fix  npt        all npt temp ${Temp} ${Temp} 2.0 y 0 0 5 z 0 0 5 couple yz
fix  npt        all npt temp 1 ${Temp} 2.0 y 0 0 5 z 0 0 5 couple yz
fix  npt        all npt temp 1 1 2.0 y 0 0 5 z 0 0 5 couple yz
fix  mom        all momentum 10000 linear 1 1 1
fix  deform     all deform 1 x erate ${gamma_rate} remap x units box
fix  deform     all deform 1 x erate 5e-05 remap x units box

# THERMO
variable  thermo_frq equal ${Nfreq}
variable  thermo_frq equal 4000
thermo    ${thermo_frq}
thermo    4000
thermo_style  custom step time temp press pe ke ebond etotal epair ecouple lx ly lz pxx pyy pzz pxy pxz pyz cpu cpuremain

# deform
run ${Run}
run 40000000

CITE-CITE-CITE-CITE-CITE-CITE-CITE-CITE-CITE-CITE-CITE-CITE-CITE

Your simulation uses code contributions which should be cited:

- GPU package (short-range, long-range and three-body potentials): doi:10.1016/j.cpc.2010.12.021, doi:10.1016/j.cpc.2011.10.012, doi:10.1016/j.cpc.2013.08.002, doi:10.1016/j.commatsci.2014.10.068, doi:10.1016/j.cpc.2016.10.020, doi:10.3233/APC200086

@Article{Brown11,
 author = {W. M. Brown and P. Wang and S. J. Plimpton and A. N. Tharrington},
 title = {Implementing Molecular Dynamics on Hybrid High Performance Computers---Short Range Forces},
 journal = {Comput.\ Phys.\ Commun.},
 year =    2011,
 volume =  182,
 pages =   {898--911},
 doi =     {10.1016/j.cpc.2010.12.021}
}

@Article{Brown12,
 author = {W. M. Brown and A. Kohlmeyer and S. J. Plimpton and A. N. Tharrington},
 title = {Implementing Molecular Dynamics on Hybrid High Performance Computers - Particle-Particle Particle-Mesh},
 journal = {Comput.\ Phys.\ Commun.},
 year =    2012,
 volume =  183,
 doi =     {10.1016/j.cpc.2011.10.012},
 pages =   {449--459}
}

@Article{Brown13,
 author = {W. M. Brown and Y. Masako},
 title = {Implementing Molecular Dynamics on Hybrid High Performance Computers---Three-Body Potentials},
 journal = {Comput.\ Phys.\ Commun.},
 year =    2013,
 volume =  184,
 pages =   {2785--2793},
 doi =     {10.1016/j.cpc.2013.08.002},
}

@Article{Trung15,
 author = {T. D. Nguyen and S. J. Plimpton},
 title = {Accelerating Dissipative Particle Dynamics Simulations for Soft Matter Systems},
 journal = {Comput.\ Mater.\ Sci.},
 year =    2015,
 doi =     {10.1016/j.commatsci.2014.10.068},
 volume =  100,
 pages =   {173--180}
}

@Article{Trung17,
 author = {T. D. Nguyen},
 title = {{GPU}-Accelerated {T}ersoff Potentials for Massively Parallel
    Molecular Dynamics Simulations},
 journal = {Comput.\ Phys.\ Commun.},
 year =    2017,
 doi =     {10.1016/j.cpc.2016.10.020},
 volume =  212,
 pages =   {113--122}
}

@inproceedings{Nikolskiy19,
 author = {V. Nikolskiy and V. Stegailov},
 title = {{GPU} Acceleration of Four-Site Water Models in {LAMMPS}},
 booktitle = {Proceedings of the International Conference on Parallel
    Computing (ParCo 2019), Prague, Czech Republic},
 doi =     {10.3233/APC200086},
 year =    2019
}

- neighbor multi command: doi:10.1016/j.cpc.2008.03.005, doi:10.1007/s40571-020-00361-2

@Article{Intveld08,
 author =  {in 't Veld, P. J. and S. J.~Plimpton and G. S. Grest},
 title =   {Accurate and Efficient Methods for Modeling Colloidal
            Mixtures in an Explicit Solvent using Molecular Dynamics},
 journal = {Comput.\ Phys.\ Commut.},
 year =    2008,
 volume =  179,
 pages =   {320--329}
}

@article{Shire2020,
 author = {Shire, Tom and Hanley, Kevin J. and Stratford, Kevin},
 title = {{DEM} Simulations of Polydisperse Media: Efficient Contact
          Detection Applied to Investigate the Quasi-Static Limit},
 journal = {Computational Particle Mechanics},
 year = {2020}
}

CITE-CITE-CITE-CITE-CITE-CITE-CITE-CITE-CITE-CITE-CITE-CITE-CITE

Generated 0 of 36 mixed pair_coeff terms from geometric mixing rule
WARNING: Communication cutoff adjusted to 4 (src/comm.cpp:732)
WARNING: Inconsistent image flags (src/domain.cpp:819)
Per MPI rank memory allocation (min/avg/max) = 55.88 | 55.96 | 56.1 Mbytes
   Step          Time           Temp          Press          PotEng         KinEng         E_bond         TotEng         E_pair        Ecouple           Lx             Ly             Lz            Pxx            Pyy            Pzz            Pxy            Pxz            Pyz            CPU          CPULeft    
         0   0              0.99786426     0.16221384     7.5821602      1.4967898      10.391908      9.0789499     -2.8097483      0              59.177058      59.177058      59.177058      0.08867948     0.14770005     0.250262       0.013313406   -0.046235419    0.035963883    0              0            
      4000   4              1.0005015     -0.067393112    7.5867652      1.5007456      10.396239      9.0875108     -2.8094739     -1885.4398      59.188893      59.173071      59.173071     -0.13532574     0.050937989   -0.11779159     0.10417624    -0.037661733    0.065318058    28.1122        281093.9     
      8000   8              1.0031904     -0.0067057155   7.5842035      1.504779       10.393463      9.0889825     -2.80926       -2171.5894      59.200729      59.167962      59.167962     -0.046855706   -0.024379414    0.051117974   -0.032254486    0.0030409686   0.003621721    56.579343      282840.14    
     12000   12             0.99833289    -0.083122762    7.582365       1.4974927      10.391952      9.0798577     -2.8095875     -62.890371      59.212564      59.165208      59.165208     -0.10201242     0.0096464625  -0.15700233     0.0072408439  -0.0066667236   0.071908362    84.966303      283136.05    
     16000   16             0.99687473    -0.017379407    7.5876457      1.4953055      10.395799      9.0829512     -2.8081537     -715.54712      59.224399      59.168703      59.168703     -0.10405318     0.03517271     0.016742251    0.136396      -0.061342263    0.10538527     112.91854      282183.43    
     20000   20             1.0012033     -0.0062291372   7.5840072      1.5017982      10.392154      9.0858054     -2.8081469     -1313.9919      59.236235      59.171019      59.171019     -0.069718113    0.12086174    -0.069831042   -0.0059165067  -0.0055411082   0.07547185     140.42311      280705.81    
     24000   24             1.00127        0.17355385     7.5892422      1.5018984      10.394153      9.0911406     -2.8049104     -2475.1848      59.24807       59.16273       59.16273       0.24494015     0.12253803     0.15318337     0.064114095   -0.049508637   -0.044552906    168.54503      280739.84    
     28000   28             1.0003266     -0.0071367354   7.5875493      1.5004833      10.395899      9.0880327     -2.80835       -1725.2952      59.259906      59.14924       59.14924       0.0052103815  -0.090711702    0.064091114    0.065005536    0.0010901108   0.020540701    196.1251       279982.59    
     32000   32             1.0015583     -0.01547211     7.5817974      1.5023308      10.392598      9.0841282     -2.8108003     -797.96654      59.271741      59.125044      59.125044      0.015051719   -0.1360317      0.074563655   -0.048345131    0.083109766    0.065129823    223.94758      279710.53    
     36000   36             1.0009447     -0.013363728    7.5878021      1.5014104      10.395339      9.0892125     -2.8075366     -1898.1641      59.283576      59.14633       59.14633      -0.10677811     0.16160086    -0.094913933   -0.00018290073  0.048698455   -0.013213225    251.96119      279704.92    
     40000   40             1.0017419     -0.034582715    7.5891716      1.5026062      10.391992      9.0917777     -2.8028207     -2430.5421      59.295412      59.161034      59.161034     -0.066172384   -0.021236658   -0.016339104   -0.005039651    0.09896979    -0.0016494615   279.70302      279423.32    
     44000   44             0.99936256    -0.12982415     7.5851348      1.4990372      10.39151       9.084172      -2.8063751     -664.85908      59.307247      59.131797      59.131797     -0.26266283    -0.098055368   -0.028754254    0.003667794    0.00020860194 -0.002944524    307.47409      279214.43    
     48000   48             1.0021757     -0.11229129     7.5879833      1.5032569      10.392683      9.0912401     -2.8046999     -2212.0085      59.319083      59.148176      59.148176     -0.25107951    -0.027731205   -0.058063139   -0.12522692     0.042522856    0.013271532    335.22406      279018.16    
     52000   52             0.99939338     0.054372007    7.5904252      1.4990834      10.394587      9.0895087     -2.8041618     -1773.017       59.330918      59.131296      59.131296     -0.024404265   -0.0033078789   0.19082816     0.008262632   -0.028978335   -0.09587464     362.63092      278584.23    
     56000   56             0.99603629    -0.0087921306   7.5861059      1.4940478      10.391183      9.0801538     -2.8050771      386.72531      59.342753      59.128906      59.128906     -0.069984673   -0.0038346843   0.047442965    0.077626783    0.099557785    0.05107112     390.81431      278762.26    
     60000   60             0.99702942    -0.070181305    7.5945112      1.4955375      10.395119      9.0900487     -2.8006075     -1799.4338      59.354589      59.137213      59.137213     -0.046348079    0.015428574   -0.17962441     0.049486408    0.016205832    0.067636692    418.27777      278433.57    
     64000   64             1.0001515     -0.011953792    7.5936531      1.5002206      10.393837      9.0938738     -2.800184      -2616.1927      59.366424      59.133158      59.133158     -0.056685928   -0.040362806    0.061187359    0.041990291    0.056492601   -0.052354833    445.52315      278006.45    
     68000   68             1.0019608      0.1143105      7.581753       1.5029345      10.388652      9.0846875     -2.8068993     -495.30011      59.37826       59.090525      59.090525      0.12725721     0.086057718    0.12961656     0.047791611    0.011994993    0.036711298    473.20536      277882.89    
     72000   72             0.99969161    -0.067099085    7.590288       1.4995308      10.393589      9.0898188     -2.8033008     -1605.6103      59.390095      59.103629      59.103629     -0.098009592   -0.095335798   -0.0079518653   0.010362217   -0.028659647    0.0083560985   501.0287       277848.25    
     76000   76             1.0021323      0.010663118    7.5888523      1.5031917      10.392265      9.0920441     -2.8034123     -2061.5596      59.401931      59.09933       59.09933      -0.010660803   -0.054121755    0.096771911   -0.015606483    0.039120056   -0.06056368     528.88783      277833.13    
     80000   80             1.0003742     -0.069203124    7.5874874      1.5005547      10.392562      9.088042      -2.805075      -1107.7108      59.413766      59.082419      59.082419     -0.10289163    -0.03999238    -0.064725358   -0.070630512   -0.021819998   -0.062535164    556.75093      277818.71    
     84000   84             0.99543949     0.12713638     7.5849868      1.4931526      10.391932      9.0781395     -2.8069457      1176.3226      59.425601      59.071887      59.071887      0.10446783     0.08270642     0.1942349     -0.039065253    0.041800809    0.0076848604   584.88431      277931.45    
     88000   88             0.99914616     0.018204058    7.5915178      1.4987126      10.393466      9.0902304     -2.8019486     -1505.4091      59.437437      59.097202      59.097202     -0.057374219    0.056263723    0.05572267     0.018918519   -0.037019074    0.03047426     612.65743      277867.99    
     92000   92             0.99986686    -0.020253715    7.5952534      1.4997937      10.39665       9.0950471     -2.8013964     -2546.0338      59.449272      59.075238      59.075238     -0.14837815     0.049706368    0.037910635    0.061927763    0.021286808   -0.04576694     640.34088      277768.74    
     96000   96             0.99936999    -0.18335351     7.5900009      1.4990483      10.392404      9.0890492     -2.8024034     -1141.8498      59.461108      59.08056       59.08056      -0.22102209    -0.088668691   -0.24036973    -0.057291686   -0.064899053   -0.02816369     667.77702      277572.65    
    100000   100            0.99899495     0.0041113739   7.5873954      1.4984858      10.391608      9.0858812     -2.8042129     -379.87155      59.472943      59.05187       59.05187      -0.066829861    0.0067104496   0.072453533    0.096831874   -0.037510442   -0.11819489     695.7523       277605.17    
    104000   104            1.0005399     -0.19374422     7.5939782      1.5008033      10.395382      9.0947815     -2.8014042     -2341.5811      59.484778      59.06801       59.06801      -0.33305958    -0.17685276    -0.07132031     0.0016572341  -0.011279038    0.006121144    723.52761      277556.32    
    108000   108            0.99824949     0.033747964    7.5907474      1.4973676      10.392072      9.088115      -2.8013242     -787.58208      59.496614      59.059771      59.059771      0.028612337   -0.0050797226   0.077711278    0.11768202    -0.043447695    0.071167842    751.48697      277577.02    
    112000   112            1.0013442     -0.015495556    7.5922772      1.5020096      10.394479      9.0942868     -2.802202      -2132.5301      59.508449      59.048377      59.048377     -0.074157703    0.15684652    -0.12917549    -0.061814854    0.053301164   -0.030602696    779.61459      277654.17    
    116000   116            1.0015469     -0.11581979     7.5944277      1.5023136      10.394689      9.0967413     -2.800261      -2639.329       59.520285      59.055338      59.055338     -0.15261531    -0.16237724    -0.032466802    0.012604461   -0.027405016   -0.077456252    807.69053      277706.29    
    120000   120            1.0026724     -0.088776477    7.5877098      1.504002       10.392478      9.0917118     -2.804768      -1454.7493      59.53212       59.037036      59.037036     -0.13030607     0.0040574288  -0.14008079    -0.028135924    0.09937197    -0.058936971    835.86916      277787.19    
    124000   124            0.9995927     -0.045317444    7.5904528      1.4993824      10.391234      9.0898352     -2.8007808     -979.88729      59.543955      59.043362      59.043362     -0.053248533   -0.035607815   -0.047095983   -0.062187913    0.094123883    0.024251069    863.77816      277774.34    
    128000   128            0.99945575    -0.030798263    7.5956497      1.499177       10.394975      9.0948267     -2.7993254     -2059.0473      59.555791      59.052953      59.052953     -0.0087352768  -0.0024910256  -0.081168486   -0.0085467199  -0.015583019   -0.05051514     891.688        277760.81    
    132000   132            0.99931573     0.030589154    7.5970441      1.498967       10.395192      9.0960111     -2.7981481     -2276.5982      59.567626      59.048693      59.048693      0.048639196   -0.022268702    0.065396968   -0.1477339     -0.032915145    0.036129744    919.86774      277827.93    
    136000   136            0.99790318    -0.055003167    7.5915617      1.4968481      10.392535      9.0884099     -2.8009734     -511.10529      59.579462      59.023003      59.023003     -0.071882194    0.019088555   -0.11221586    -0.07099076    -0.047706267    0.03025085     947.71984      277793.41    
    140000   140            0.99949375    -0.13324804     7.5928806      1.499234       10.393827      9.0921145     -2.8009462     -1300.7793      59.591297      59.019787      59.019787     -0.2324417     -0.11038032    -0.056922102   -0.028356391    0.087351356   -0.010757052    975.58219      277762.19    
    144000   144            0.99977201    -0.060630315    7.5933747      1.4996514      10.394366      9.0930261     -2.8009912     -1457.2647      59.603133      59.016508      59.016508     -0.1895517     -0.12593402     0.13359477     0.093258421    0.06724719    -0.081710061    1003.6188      277779.38    
    148000   148            1.0002775     -0.09537838     7.5905682      1.5004096      10.391844      9.0909779     -2.8012754     -947.41291      59.614968      59.006793      59.006793     -0.047853805   -0.11302006    -0.12526128    -0.061393061   -0.0402208      0.044431805    1031.049       277630.85    
    152000   152            1.0004372     -0.078980058    7.5841631      1.5006491      10.389054      9.0848122     -2.804891       493.83824      59.626803      58.977781      58.977781     -0.096517622   -0.032096045   -0.10832651     0.005060524    0.092556093    0.008464395    1058.9714      277617.72    
    156000   156            1.0021783      0.0095232549   7.5912886      1.5032608      10.394937      9.0945494     -2.8036486     -1656.6998      59.638639      58.98813       58.98813      -0.1228459      0.070860211    0.080555454   -0.0020789529  -0.083047361   -0.032785146    1087.0014      277631.3     
    160000   160            0.9964027     -0.12462048     7.5944463      1.4945974      10.395098      9.0890437     -2.8006515     -361.66574      59.650474      58.984455      58.984455     -0.28313254     0.0333776     -0.1241065      0.01029037    -0.034439556    0.092065517    1114.6694      277552.67    
    164000   164            0.99868733    -0.060734822    7.5971331      1.4980244      10.396216      9.0951574     -2.799083      -1693.6176      59.66231       58.990406      58.990406     -0.12377452     0.060377571   -0.11880751     0.083319825   -0.010285841   -0.017477791    1142.6439      277550.99    
    168000   168            1.0023224      0.02654362     7.5922339      1.5034769      10.393184      9.0957108     -2.8009497     -1769.9892      59.674145      58.97969       58.97969      -0.080877528    0.090891388    0.069617      -0.026195575   -0.048522203   -0.080966545    1170.5925      277541.92    
    172000   172            1.0011655     -0.1065706      7.5909885      1.5017416      10.389881      9.0927301     -2.7988924     -1047.8792      59.68598       58.993427      58.993427     -0.12552151    -0.008989906   -0.18520039    -0.0071119793   0.0039344279  -0.0068287917   1198.5801      277540.98    
    176000   176            1.0023662     -0.091934091    7.600931       1.5035427      10.396469      9.1044737     -2.7955378     -3651.1232      59.697816      58.981264      58.981264     -0.25811738     0.027226158   -0.044911054   -0.061545753    0.090635134   -0.051103148    1226.3804      277496.43    
    180000   180            1.0016969     -0.13563962     7.596374       1.5025387      10.395519      9.0989127     -2.7991452     -2344.8413      59.709651      58.980243      58.980243     -0.2040405     -0.10949342    -0.093384947    0.03035752    -0.0070174192   0.0070314675   1254.047       277423.07    
    184000   184            0.99910299    -0.089611952    7.5927377      1.4986479      10.395127      9.0913855     -2.8023889     -595.71074      59.721487      58.957262      58.957262     -0.22874961    -0.030021098   -0.010065146    0.059039905    0.013422345    0.058813105    1281.6218      277331.82    
    188000   188            0.99732899    -0.11441951     7.5942046      1.4959869      10.394116      9.0901915     -2.7999117     -274.3352       59.733322      58.958585      58.958585     -0.24133524    -0.027056376   -0.074866917    0.076763072   -0.0026222216   0.010193593    1309.6795      277345.54    
    192000   192            1.0008491     -0.17072612     7.5980582      1.5012671      10.394223      9.0993253     -2.7961648     -2290.4506      59.745157      58.964903      58.964903     -0.23404264    -0.18599975    -0.092135958   -0.12497104     0.032510627    0.0198543      1337.5979      277328.64    
    196000   196            0.9983446     -0.068774332    7.5945901      1.4975103      10.393883      9.0921003     -2.7992925     -607.361        59.756993      58.951309      58.951309     -0.21626557     0.0055109898   0.0044315867   0.066326947   -0.01660331     0.0088610099   1365.2814      277263.57    
    200000   200            0.99753489     0.021560609    7.5956582      1.4962957      10.395736      9.0919539     -2.8000782     -524.23523      59.768828      58.943898      58.943898     -0.042349563   -0.0046291205   0.11166051    -0.019677214   -0.005475718    0.070734862    1393.3001      277266.73    
    204000   204            1.0041367     -0.058702223    7.595248       1.5061984      10.393649      9.1014464     -2.7984013     -2619.134       59.780664      58.934074      58.934074     -0.037888648   -0.13441189    -0.003806131    0.026964173   -0.15300335    -0.044037257    1421.5646      277316.58    
    208000   208            1.0014531     -0.072773477    7.5958727      1.502173       10.395718      9.0980457     -2.7998457     -1800.0513      59.792499      58.919517      58.919517     -0.084323317   -0.025241058   -0.10875606     0.013301142   -0.069867395    0.042701048    1449.4925      277299.07    
    212000   212            1.0002125     -0.11359394     7.5929004      1.5003122      10.392016      9.0932125     -2.7991161     -660.06787      59.804335      58.933247      58.933247     -0.19482739    -0.065243779   -0.080710655    0.11686786     0.047675416   -0.074531368    1477.4782      277292       
    216000   216            0.99956683    -0.019863532    7.5887823      1.4993436      10.389408      9.088126      -2.8006257      536.75115      59.81617       58.927128      58.927128     -0.19447281     0.15654137    -0.021659152   -0.060012118    0.012791863   -0.00011270934  1505.3979      277271.99    
    220000   220            1.0009595      0.054350988    7.5919594      1.5014325      10.393514      9.0933919     -2.8015545     -601.69166      59.828005      58.897001      58.897001     -0.061673623    0.21043611     0.014290477    0.11076885     0.052637848    0.0090169318   1533.2248      277234.92    
    224000   224            1.0006921     -0.17372777     7.5962405      1.5010315      10.393134      9.097272      -2.7968933     -1427.0153      59.839841      58.921358      58.921358     -0.19869798    -0.21424738    -0.10823796    -0.06312294    -0.030626023    0.016509523    1561.3754      277255.65    
    228000   228            0.99759713    -0.23644127     7.5919076      1.4963891      10.391426      9.0882967     -2.799518       648.52947      59.851676      58.91357       58.91357      -0.35829362    -0.057973824   -0.29305637    -0.0084694493  -0.062391825   -0.051140442    1589.6477      277295.92    
    232000   232            0.99933903    -0.086306964    7.5955972      1.4990019      10.393798      9.0945991     -2.798201      -723.08969      59.863512      58.89472       58.89472      -0.19707029    -0.00062101462 -0.061229585    0.0083654295   0.098339641   -0.012619871    1618.1947      277380.9     
    236000   236            1.0000485      0.043788288    7.5968234      1.5000661      10.395877      9.0968895     -2.7990538     -1190.1645      59.875347      58.886466      58.886466     -0.007820777    0.10446351     0.034722132   -0.10056868     0.045193101   -0.074852022    1646.4044      277405.19    
    240000   240            0.99733688    -0.021666385    7.5928671      1.4959987      10.394076      9.0888658     -2.8012088      672.43653      59.887182      58.874053      58.874053     -0.12605171    -0.043493305    0.10454586     0.0073082792   0.0022507666  -0.058061247    1674.7496      277450.18    
    244000   244            1.000178      -0.039816944    7.5931123      1.5002604      10.394912      9.0933727     -2.8017993     -293.80804      59.899018      58.873318      58.873318     -0.15909693     0.031288732    0.0083573696   4.7417938e-05 -0.031606179    0.0012381595   1702.4034      277380.12    
    248000   248            0.99854735    -0.045410981    7.5968893      1.4978144      10.39563       9.0947037     -2.7987409     -544.18169      59.910853      58.874127      58.874127     -0.19058139    -0.018327419    0.072675865   -0.052047648   -0.067599318   -0.098919321    1730.5677      277393.25    
    252000   252            1.0010731     -0.063971399    7.5874696      1.501603       10.391497      9.0890726     -2.8040273      776.59856      59.922689      58.847987      58.847987     -0.13667043    -0.014670973   -0.040572793   -0.095858026   -0.01774242     0.0089068993   1758.5194      277371.55    
    256000   256            1.0003162      0.016331371    7.5872314      1.5004677      10.392108      9.0876991     -2.8048769      1138.4127      59.934524      58.825978      58.825978      0.032190576    0.051780114   -0.034976578    0.0076545541  -0.11272051     0.026483881    1786.1262      277296.09    
    260000   260            1.0027852     -0.047235245    7.5924633      1.5041712      10.394071      9.0966345     -2.801608      -829.60644      59.946359      58.853029      58.853029     -0.067424236    0.0094732629  -0.08375476     0.033984892    0.0078982876   0.04748363     1813.4404      277177.38    
    264000   264            1.0002622     -0.12385236     7.5935678      1.5003867      10.391255      9.0939545     -2.7976869     -175.85873      59.958195      58.859627      58.859627     -0.24766133    -0.044833503   -0.07906223    -0.066210279   -0.053618091   -0.0032443884   1841.4519      277166.41    
    268000   268            0.99496993    -0.10851449     7.595212       1.4924483      10.394473      9.0876603     -2.7992611      1299.043       59.97003       58.844899      58.844899     -0.20414668    -0.037960459   -0.083436313    0.030418185   -0.011077146   -0.025658792    1869.3161      277133.09    
    272000   272            1.0025863      0.033217388    7.5933182      1.5038729      10.393278      9.0971911     -2.7999599     -805.86983      59.981866      58.84357       58.84357       0.024666124    0.03701618     0.037969861   -0.022718356    0.089961155   -0.048205823    1897.062       277082.64    
    276000   276            0.99977901    -0.0089478137   7.5924564      1.4996619      10.394368      9.0921183     -2.8019121      389.457        59.993701      58.826878      58.826878     -0.21793066     0.14987668     0.04121054     0.050047303   -0.042653009    0.077480968    1925.157       277083.11    
    280000   280            1.0012473     -0.02584514     7.5928373      1.5018644      10.393411      9.0947017     -2.8005734     -144.25412      60.005537      58.826455      58.826455     -0.071080867    0.020189059   -0.02664361    -0.014876829    0.01067935     0.079013684    1953.2232      277078.66    
    284000   284            1.0021894     -0.095515472    7.597572       1.5032774      10.39553       9.1008494     -2.7979581     -1481.4832      60.017372      58.828561      58.828561     -0.27741169     0.067545074   -0.076679802   -0.05064257     0.1232887      0.037660609    1981.1061      277047.93    
    288000   288            1.0005639     -0.11443976     7.5943979      1.5008392      10.392015      9.095237      -2.7976167     -163.89714      60.029207      58.823431      58.823431     -0.16643446    -0.11733769    -0.059547141   -0.0080742731  -0.04919451    -0.1014826      2008.7292      276981.44    
    292000   292            1.0002662     -0.029104936    7.5957992      1.5003927      10.393017      9.0961918     -2.7972176     -327.17596      60.041043      58.821163      58.821163     -0.064068663    0.00055988415 -0.02380603     0.0057438311  -0.0064467036  -0.0068727801   2036.6357      276954.56    
    296000   296            1.0029145     -0.040964771    7.5994134      1.5043651      10.396628      9.1037785     -2.7972145     -1991.0341      60.052878      58.822987      58.822987     -0.10141228    -0.035316677    0.01383465     0.015675152    0.096557754   -0.012406833    2064.5475      276928.36    
    300000   300            0.99856693    -0.078325166    7.5970344      1.4978438      10.396868      9.0948782     -2.799834       70.163112      60.064714      58.798689      58.798689      0.0065457143  -0.039500656   -0.20202056     0.035380899   -0.071474743   -0.044159009    2092.6297      276924.67    
    304000   304            0.99991658    -0.079428673    7.5962788      1.4998682      10.394625      9.096147      -2.7983465     -165.90476      60.076549      58.805809      58.805809     -0.16138657    -0.031957802   -0.044941643   -0.053805961    0.0025360494   0.083508307    2120.4317      276883.74    
    308000   308            1.0017231     -0.083938798    7.5984527      1.502578       10.395461      9.1010307     -2.797008      -1218.3163      60.088384      58.801764      58.801764     -0.1600711     -0.079380318   -0.012364977    0.080981455   -0.031575468    0.015266208    2148.241       276844.1     
    312000   312            0.99775152     0.055721282    7.5945495      1.4966207      10.393479      9.0911701     -2.7989295      1059.54        60.10022       58.770785      58.770785      0.067037558    0.048441698    0.05168459     0.090744695   -0.11056158    -0.030209458    2176.1143      276812.9     
    316000   316            1.0015432     -0.037379534    7.5947448      1.5023081      10.394587      9.0970529     -2.7998422     -219.95191      60.112055      58.773039      58.773039     -0.03695171    -0.011982982   -0.063203911    0.023994783   -0.035207034   -0.035949267    2204.6166      276860.78    
    320000   320            0.99996159    -0.058908097    7.5979195      1.4999358      10.394099      9.0978552     -2.7961794     -349.00964      60.123891      58.783413      58.783413     -0.22568823    -0.03611781     0.085081743   -0.027007067    0.032078666   -0.071597562    2232.7698      276863.46    
    324000   324            0.99961625    -0.070632096    7.5915959      1.4994177      10.390084      9.0910137     -2.798488       1245.9195      60.135726      58.775833      58.775833     -0.26451004    -0.011354679    0.063968428    0.017512931   -0.0439314     -0.039337513    2260.8605      276857.72    
    328000   328            1.0000445     -0.14984934     7.5989262      1.5000601      10.396072      9.0989864     -2.7971454     -503.28752      60.147561      58.773137      58.773137     -0.30975004    -0.056048112   -0.083749871    0.072172236    0.010351602   -0.055750053    2289.0111      276858.69    
    332000   332            0.99907384    -0.092890755    7.5966696      1.4986041      10.396036      9.0952738     -2.799366       384.72548      60.159397      58.756994      58.756994     -0.1630166     -0.04825338    -0.067402291    0.089563012   -0.083654499   -0.067456498    2317.1588      276858.6     
    336000   336            0.9973293     -0.10314952     7.5988225      1.4959873      10.394876      9.0948098     -2.7960534      541.48289      60.171232      58.76658       58.76658      -0.33345907    -0.030286862    0.054297382    0.036819834   -0.015025409   -0.016214466    2345.2047      276845.83    
    340000   340            1.0042052     -0.0088112018   7.5967146      1.5063012      10.393465      9.1030158     -2.7967502     -1262.5455      60.183068      58.751694      58.751694     -0.094682389    0.040149506    0.028099277    0.045773828    0.03425824     0.041870775    2373.3973      276849.82    
    344000   344            1.0013899     -0.18614569     7.5937259      1.5020782      10.391823      9.0958041     -2.798097       418.31653      60.194903      58.750716      58.750716     -0.31527055    -0.055224583   -0.18794194    -0.033480878   -0.019990928    0.057452267    2401.3446      276824.78    
    348000   348            1.0004247     -0.09481495     7.592574       1.5006305      10.390504      9.0932045     -2.7979296      1055.8088      60.206739      58.729168      58.729168     -0.27657266     0.043092588   -0.050964778   -0.086847508    0.074369283   -0.18950921     2429.5481      276828.85    
    352000   352            1.001931      -0.070849129    7.6003737      1.5028899      10.396758      9.1032636     -2.7963846     -1163.5497      60.218574      58.737824      58.737824     -0.31775368     0.06436598     0.040840308    0.013347993    0.071467017    0.054467566    2457.747       276831.68    
    356000   356            1.0012685     -0.090574859    7.5954949      1.5018961      10.394229      9.097391      -2.7987341      214.03297      60.230409      58.716873      58.716873     -0.19518304    -0.0015431324  -0.0749984     -0.028305068   -0.055707016    0.080545559    2486.0906      276849.94    
    360000   360            0.99925579    -0.033124758    7.5968532      1.4988771      10.39153       9.0957303     -2.794677       638.85243      60.242245      58.736798      58.736798     -0.07595732    -0.020522938   -0.0028940164   0.01403909     0.029357625   -0.029179873    2514.2596      276847.92    
    364000   364            1.0021734      0.041849561    7.6002027      1.5032535      10.397295      9.1034562     -2.7970921     -1052.7389      60.25408       58.719444      58.719444     -0.06572284     0.10008813     0.091183391    0.045126549   -0.025533253   -0.028220942    2542.6835      276873.09    
    368000   368            1.0027365     -0.0040050086   7.5982575      1.5040981      10.39496       9.1023556     -2.7967027     -753.87264      60.265916      58.708669      58.708669     -0.079501483    0.019380992    0.048105465   -0.031189392   -0.091575125   -0.066520908    2570.6256      276845.2     
    372000   372            1.0007977     -0.18110729     7.5964903      1.50119        10.393539      9.0976803     -2.7970484      354.45786      60.277751      58.717251      58.717251     -0.29329372    -0.063511364   -0.18651679     0.0083931326  -0.075639988   -0.081725824    2598.6122      276822.06    
    376000   376            0.99792733    -0.10977087     7.5997573      1.4968844      10.394105      9.0966416     -2.7943479      638.75795      60.289586      58.721329      58.721329     -0.17240216    -0.029902194   -0.12700824    -0.064788552    0.038413477    0.00082688505  2626.6838      276807.76    
    380000   380            1.0029004      0.060293494    7.6002992      1.504344       10.393593      9.1046432     -2.7932943     -1115.0696      60.301422      58.704709      58.704709     -0.082441559    0.22257959     0.040742454    0.0069203874  -0.079154471   -0.084742768    2654.9043      276808.71    
    384000   384            0.99951601    -0.088610633    7.5963628      1.4992674      10.395159      9.0956301     -2.7987962      972.54234      60.313257      58.679201      58.679201     -0.26859498     0.0098813937  -0.0071183121   0.085926496   -0.050619255    0.08426749     2682.9557      276791.6     
    388000   388            0.99946331     0.024429869    7.5972755      1.4991883      10.394346      9.0964638     -2.7970703      835.30307      60.325093      58.666745      58.666745     -0.1074643      0.17470814     0.0060457737  -0.051057647    0.081557822   -0.074563518    2710.7359      276746.58    
    392000   392            1.0009489     -0.090480295    7.6015781      1.5014167      10.396294      9.1029948     -2.7947157     -589.70744      60.336928      58.694716      58.694716     -0.31930496     0.032856552    0.015007525    0.039223665    0.027377367   -0.051739873    2738.771       276727.66    
    396000   396            0.9998934     -0.0028769512   7.5999889      1.4998335      10.397008      9.0998224     -2.7970188      180.01531      60.348763      58.686482      58.686482     -0.11221357     0.13352419    -0.029941474   -0.062318217    0.0076891709   0.094475037    2766.7513      276703.08    
    400000   400            0.99834713    -0.070386353    7.5989629      1.4975141      10.395149      9.096477      -2.7961858      987.12944      60.360599      58.670772      58.670772     -0.35747937     0.03410448     0.11221583    -0.055798486   -0.038920452    0.056834286    2795.075       276712.43    
    404000   404            1.0006817     -0.054599772    7.6025046      1.5010159      10.396417      9.1035205     -2.7939123     -552.19363      60.372434      58.666111      58.666111     -0.23568003     0.0065098813   0.065370831   -0.10887221     0.040883592    0.10151292     2823.0217      276684.08    
    408000   408            1.0010774     -0.06329442     7.5988998      1.5016095      10.395263      9.1005093     -2.7963634      176.78084      60.38427       58.658686      58.658686     -0.16317845    -0.075043634    0.048338822   -0.015659312    0.018824745    0.011821893    2850.8095      276640.32    
    412000   412            1.0015014     -0.10746922     7.5934725      1.5022454      10.392983      9.095718      -2.7995107      1310.6367      60.396105      58.647057      58.647057     -0.23190126     0.011761092   -0.1022675      0.074794628    0.091721539   -0.0024269667   2878.6331      276600.31    
    416000   416            1.0007573     -0.079936237    7.6023032      1.5011293      10.39783       9.1034325     -2.7955268     -380.76521      60.407941      58.644329      58.644329     -0.18925006    -0.094791827    0.044233173   -0.033313413    0.017367127   -0.07228432     2906.9043      276603.12    
    420000   420            0.99830525    -0.25827668     7.5973588      1.4974512      10.392785      9.0948101     -2.7954264      1616.8065      60.419776      58.652435      58.652435     -0.43332047    -0.092676659   -0.24883293     0.035980133   -0.013507186    0.040960897    2935.1445      276602.43    
    424000   424            0.99863044     0.020681523    7.6008494      1.497939       10.395565      9.0987884     -2.7947154      771.05211      60.431611      58.627431      58.627431     -0.080462749    0.10096243     0.041544888   -0.067839109   -0.053232433    0.03510912     2962.832       276549.63    
    428000   428            1.0003846     -0.056321289    7.6031063      1.5005702      10.394198      9.1036765     -2.7910914     -282.31534      60.443447      58.657707      58.657707     -0.28044207     0.17088661    -0.059408412   -0.065115792   -0.083978619    0.034719467    2990.6762      276511.77    
    432000   432            1.0004592     -0.018054564    7.5959918      1.5006822      10.390388      9.096674      -2.794396       1349.68        60.455282      58.645394      58.645394     -0.22453802     0.23776286    -0.067388536    0.061372896    0.096887106   -0.0063527245   3018.6556      276486.49    
    436000   436            0.99824531    -0.083299697    7.6010544      1.4973613      10.395028      9.0984157     -2.7939734      1008.7426      60.467118      58.623554      58.623554     -0.14495486     0.1578851     -0.26282933     0.047332534    0.012763293    0.047464027    3046.7605      276472.55    
    440000   440            1.0015359     -0.05926297     7.6022871      1.5022973      10.39368       9.1045844     -2.791393      -334.85363      60.478953      58.642679      58.642679     -0.04257458    -0.015044786   -0.12016955     0.091429925   -0.029441607   -0.010369901    3074.9675      276467.54    
    444000   444            0.99878596     0.0043483928   7.6054501      1.4981723      10.397434      9.1036225     -2.7919842     -64.236506      60.490788      58.627492      58.627492     -0.21722226     0.15066265     0.079604784   -0.067606436   -0.05497382     0.076556087    3102.8853      276436.33    
    448000   448            0.9976029     -0.036070258    7.6000465      1.4963977      10.394633      9.0964442     -2.7945868      1607.8143      60.502624      58.612941      58.612941     -0.27281541     0.12277979     0.041824839   -0.063391857    0.020605509    0.037109058    3130.7296      276398.7     
    452000   452            1.0023803     -0.0037142132   7.6009867      1.5035638      10.395189      9.1045505     -2.7942024     -172.4897       60.514459      58.595293      58.595293     -0.24401673     0.13432196     0.098552138    0.10947131    -0.025503031    0.095286116    3158.9355      276392.88    
    456000   456            1.0000008     -0.10034188     7.6021587      1.4999946      10.395158      9.1021533     -2.7929994      420.90786      60.526295      58.615675      58.615675     -0.17841486     0.010020653   -0.13263142     0.040968702   -0.013867073    0.058293675    3186.9382      276369.04    
    460000   460            1.001606      -0.099376562    7.5954532      1.5024024      10.389106      9.0978556     -2.7936527      1440.5467      60.53813       58.607554      58.607554     -0.1928431      0.033030967   -0.13831755    -0.024677308   -0.010800749    0.051752062    3215.2251      276369.57    
    464000   464            0.99943378    -0.022202909    7.6007158      1.499144       10.392877      9.0998598     -2.7921611      1039.9442      60.549965      58.608727      58.608727     -0.27625047     0.12107555     0.088566198    0.083125203   -0.04247036    -0.072319594    3243.0325      276328.74    
    468000   468            0.99992418     0.093713163    7.6043024      1.4998796      10.397039      9.104182      -2.7927364      115.49984      60.561801      58.595457      58.595457     -0.059206344    0.21969256     0.12065327     0.13785248     0.012657796    0.014536427    3270.8481      276288.82    
    472000   472            1.0029985     -0.13873399     7.6056614      1.5044912      10.396711      9.1101526     -2.7910495     -1183.5176      60.573636      58.596865      58.596865     -0.35609107     0.073959906   -0.13407081     0.01994913     0.010970087    0.10005878     3298.7254      276254.28    
    476000   476            1.0010535     -0.088784643    7.5996501      1.5015736      10.393286      9.1012237     -2.7936358      883.73234      60.585472      58.575565      58.575565     -0.22896849     0.0059953397  -0.043380782    0.051055631   -0.045971051    0.10568507     3326.7703      276233.76    
    480000   480            0.99937576    -0.11985529     7.5965949      1.499057       10.390771      9.095652      -2.7941756      2191.5673      60.597307      58.566968      58.566968     -0.29105203    -0.042524272   -0.025989556    0.016238231    0.055438785   -0.071145106    3354.944       276223.73    
    484000   484            0.99979854     0.028605697    7.5903353      1.4996912      10.388187      9.0900265     -2.7978518      3511.8907      60.609143      58.548308      58.548308      0.064174032    0.080852803   -0.059209745    0.0022019598   0.00030593928 -0.034651217    3382.7824      276186.01    
    488000   488            1.0010892      0.021173681    7.595975       1.5016272      10.393694      9.0976021     -2.797719       1852.2743      60.620978      58.5354        58.5354       -0.085229518    0.026322431    0.12242813    -0.044082464    0.074322857   -0.00435425     3410.7852      276161.77    
    492000   492            1.0018498     -0.11303055     7.5979561      1.5027681      10.39208       9.1007242     -2.7941238      1197.5877      60.632813      58.540703      58.540703     -0.33427143    -0.0060502919   0.0012300747  -0.043406867   -0.011808222   -0.07401224     3438.2011      276090.35    
    496000   496            0.99677642    -0.16273947     7.5972071      1.495158       10.389654      9.0923652     -2.7924466      3136.9223      60.644649      58.551912      58.551912     -0.23084055    -0.0013706993  -0.25600717     0.11206007     0.045128033   -0.069042659    3465.89        276041.37    
    500000   500            0.9997335     -0.090775749    7.5992891      1.4995936      10.39368       9.0988827     -2.7943913      1716.7653      60.656484      58.537803      58.537803     -0.23420145     0.020610484   -0.058736277    0.051454131   -0.13102093     0.0054490596   3493.9045      276018.45    
    504000   504            0.99988827    -0.019319463    7.5983139      1.4998258      10.394471      9.0981397     -2.7961575      1934.7019      60.66832       58.525248      58.525248      0.057741045   -0.094938966   -0.02076047     0.018814067   -0.097139544    0.041499549    3521.5725      275968.31    
    508000   508            0.99646537     0.028367836    7.5976073      1.4946914      10.395491      9.0922987     -2.7978837      3305.3234      60.680155      58.510283      58.510283     -0.13101317     0.12293719     0.093179497    0.0077298028  -0.020073945   -0.013552815    3549.4651      275935.98    
    512000   512            0.99872859    -0.11125553     7.6010643      1.4980863      10.392044      9.0991505     -2.7909794      1808.3376      60.69199       58.544505      58.544505     -0.1141729     -0.090053198   -0.1295405      0.12549301    -0.01028087    -0.0015193103   3577.3631      275904.13    
    516000   516            0.99955847     0.042073798    7.6050399      1.4993311      10.394194      9.104371      -2.7891543      679.06899      60.703826      58.536199      58.536199     -0.082213062    0.30238827    -0.093953816   -0.016030447   -0.056887994   -0.10049336     3604.9456      275848.2     
    520000   520            0.99821905     0.061981886    7.6008871      1.4973219      10.39293       9.098209      -2.7920434      2121.3097      60.715661      58.522106      58.522106     -0.14897256     0.18072163     0.15419659     0.054128861   -0.057724704   -0.03056174     3632.7308      275808.1     
    524000   524            0.99671885    -0.13490588     7.6036601      1.4950717      10.396746      9.0987318     -2.793086       2056.3828      60.727497      58.520374      58.520374     -0.13489646    -0.14217319    -0.12764801    -0.055595129    0.012795793    0.10684657     3660.8637      275794.38    
    528000   528            1.0008053     -0.10180964     7.6004421      1.5012012      10.392987      9.1016434     -2.7925449      1448.5763      60.739332      58.504998      58.504998     -0.28589744    -0.013551021   -0.0059804471  -0.05892396     0.041125933    0.055020735    3688.8288      275767.9     
    532000   532            0.99859887     0.12299247     7.6029072      1.4978917      10.393841      9.1007988     -2.7909342      1692.773       60.751167      58.508631      58.508631     -0.0051460691   0.17776515     0.19635834     0.0056763174  -0.045428362    0.047124787    3716.4746      275717.7     
    536000   536            0.99872688    -0.076463051    7.5978242      1.4980837      10.39185       9.0959079     -2.7940261      2848.8855      60.763003      58.48239       58.48239      -0.21302195    -0.014359691   -0.0020075153  -0.042768372    0.037571834    0.0040311346   3744.3967      275688.19    
    540000   540            1.0023539     -0.050366637    7.5968405      1.5035242      10.391274      9.1003647     -2.794433       1892.6649      60.774838      58.491077      58.491077     -0.17222903    -0.017947478    0.039076597    0.072194901    0.0016882007  -0.1260553      3772.0313      275637.69    
    544000   544            0.99993707     0.016934776    7.6045159      1.499899       10.392474      9.1044149     -2.7879584      1030.5504      60.786674      58.498885      58.498885     -0.016632047    0.098347526   -0.03091115    -0.16743587    -0.035394499   -0.05865654     3800.2286      275628.34    
    548000   548            0.99934361    -0.012925553    7.5974707      1.4990088      10.39167       9.0964795     -2.7941995      2874.4281      60.798509      58.462046      58.462046     -0.093176436    0.067147302   -0.012747525   -0.074831937   -0.15832336     0.0090241341   3828.4752      275622.27    
    552000   552            1.0008177      0.011469692    7.5981049      1.50122        10.391859      9.0993248     -2.7937546      2283.2467      60.810345      58.458495      58.458495     -0.17447401     0.069048837    0.13983425     0.026104031    0.013248451    0.044437585    3856.1694      275576.4     
    556000   556            1.0008911      0.041336576    7.6035359      1.5013299      10.398255      9.1048658     -2.7947196      1084.6965      60.82218       58.447676      58.447676     -0.099748198    0.15868779     0.065070136   -0.018977309   -0.11003994     0.0090249044   3884.1523      275551.26    
    560000   560            0.99652693    -0.12344846     7.6030361      1.4947838      10.395496      9.0978199     -2.7924603      2727.3648      60.834015      58.466256      58.466256     -0.29716176     0.041889736   -0.11507336    -0.011248757    0.0071075675  -0.086304118    3912.0392      275519.33    
    564000   564            1.0032221     -0.059002092    7.6003533      1.5048265      10.395851      9.1051799     -2.7954981      1116.0884      60.845851      58.440863      58.440863     -0.28464562     0.05359361     0.054045738    0.018000749    0.089109397    0.024117598    3940.0199      275494.02    
    568000   568            1.0000858     -0.096216765    7.6021811      1.5001221      10.3959        9.1023032     -2.793719       1817.7727      60.857686      58.45397       58.45397      -0.22255685    -0.051072498   -0.015020946   -0.027991098   -0.064553465    0.078791758    3967.9015      275461.78    
    572000   572            1.0001849     -0.060650488    7.5960884      1.5002708      10.391125      9.0963591     -2.795037       3212.687       60.869522      58.434892      58.434892     -0.28768282     0.078130184    0.027601171    0.048476048    0.077594745   -0.071641543    3995.8616      275435.02    
    576000   576            0.99854942    -0.052126566    7.6051277      1.4978175      10.396341      9.1029452     -2.7912131      1779.0023      60.881357      58.446381      58.446381     -0.1311359      0.063288876   -0.088532679   -0.025044904    0.038781986   -0.073910327    4023.2696      275370.45    
    580000   580            1.0023689     -0.046265344    7.6013158      1.5035467      10.393787      9.1048625     -2.7924711      1396.6647      60.893192      58.437078      58.437078     -0.26236065     0.064083795    0.059480824   -0.097853506    0.033045322    0.072810503    4051.5341      275364.61    
    584000   584            0.99643582    -0.078785573    7.602398       1.4946471      10.394072      9.0970451     -2.7916737      3215.1093      60.905028      58.436004      58.436004     -0.24112421     0.17694548    -0.17217799     0.067261188   -0.0092670478   0.073867314    4079.9536      275368.92    
    588000   588            1.0018051     -0.090683369    7.6008875      1.502701       10.392086      9.1035885     -2.7911984      1787.631       60.916863      58.427443      58.427443     -0.20776634     0.038739609   -0.10302338     0.0021131738  -0.024692935    0.067115239    4108.1321      275356.64    
    592000   592            1.0014252     -0.030800962    7.6020807      1.5021312      10.395066      9.1042119     -2.792985       1700.8476      60.928699      58.416618      58.416618     -0.19836771     0.18729746    -0.08133264    -0.075192413    0.0059556016  -0.070018564    4136.1897      275336.09    
    596000   596            1.0000399     -0.065680764    7.5963794      1.5000533      10.388017      9.0964327     -2.7916376      3505.9499      60.940534      58.416714      58.416714     -0.20075912    -0.047621655    0.051338477    0.0028474238  -0.047815603   -0.039270166    4164.4866      275331.26    
    600000   600            1.000126      -0.001377826    7.605727       1.5001824      10.393579      9.1059094     -2.7878521      1419.5588      60.952369      58.428098      58.428098     -0.15771855     0.066723642    0.086861435    0.073128111   -0.011416205    0.0082746428   4192.5661      275311.84    
    604000   604            1.0003165      0.00037179361  7.6050006      1.5004681      10.39255       9.1054687     -2.787549       1571.7746      60.964205      58.421783      58.421783     -0.069710983    0.04273161     0.028094754    0.11510231     0.082634711    0.10638257     4220.6829      275294.74    
    608000   608            0.99708828    -0.065326195    7.6030978      1.4956258      10.394907      9.0987236     -2.791809       3148.575       60.97604       58.408716      58.408716     -0.29399681    -0.0031587353   0.10117696    -0.032132903   -0.096233536    0.013127659    4248.9011      275284.07    
    612000   612            0.99920937    -0.055891194    7.6053532      1.4988074      10.394277      9.1041606     -2.7889237      1970.667       60.987876      58.423168      58.423168     -0.26164593     0.11128163    -0.017309289    0.03319719     0.02152358     0.073938714    4277.0791      275270.57    
    616000   616            1.0017539     -0.16121525     7.6033055      1.5026242      10.39126       9.1059297     -2.7879544      1623.6873      60.999711      58.411697      58.411697     -0.30438594    -0.15018194    -0.029077864   -0.068988131   -0.022609377   -0.082943107    4305.3687      275264.03    
    620000   620            1.0007689     -0.10166599     7.6053631      1.5011468      10.396463      9.1065098     -2.7911001      1545.4437      61.011547      58.392027      58.392027     -0.16454927    -0.0985391     -0.041909591   -0.01660928    -0.036493192    0.0091356238   4333.4014      275240.88    
    624000   624            0.99785701    -0.098064597    7.6026563      1.4967789      10.393401      9.0994352     -2.7907451      3194.4316      61.023382      58.392335      58.392335     -0.20344694     0.0047106441  -0.095457498    0.010345083    0.093338349   -0.029286714    4361.4463      275218.44    
    628000   628            1.0007201      0.051641612    7.6063415      1.5010734      10.398999      9.1074149     -2.792657       1444.8822      61.035217      58.368029      58.368029     -0.070409614    0.13563559     0.08969886    -0.10507826     0.055269637    0.073292175    4389.2414      275180.27    
    632000   632            1.0010115      0.003126808    7.6042237      1.5015106      10.396465      9.1057343     -2.7922408      1875.6105      61.047053      58.357204      58.357204     -0.14866425     0.19841587    -0.040371197    0.058013761   -0.082072622    0.1046289      4417.4152      275165.83    
    636000   636            0.99928025    -0.034095681    7.6053261      1.4989137      10.396943      9.1042398     -2.7916165      2267.0373      61.058888      58.358828      58.358828     -0.15626698     0.00047381646  0.053506119   -0.012439204    0.03635122     0.0018486091   4445.5607      275149.45    
    640000   640            1.0001476     -0.079689484    7.6085028      1.5002148      10.398624      9.1087176     -2.7901213      1307.6656      61.070724      58.374047      58.374047     -0.20343553    -0.066719026    0.031086101   -0.0069745435  -0.046083192    0.01456999     4473.8941      275144.48    
    644000   644            1.0011971     -0.087628726    7.6090447      1.5017889      10.397191      9.1108336     -2.7881461      880.32725      61.082559      58.378019      58.378019     -0.25276189    -0.012624731    0.0025004477  -0.068370073    0.028594093    0.028053403    4502.1593      275135.06    
    648000   648            1.0029754     -0.16367565     7.5981739      1.5044564      10.387693      9.1026303     -2.789519       2782.9679      61.094394      58.368776      58.368776     -0.41831344     0.094187473   -0.16690098     0.086178358    0.048823776    0.065761751    4530.1498      275108.73    
    652000   652            0.99879799    -0.13641819     7.6101172      1.4981904      10.39688       9.1083075     -2.786763       1555.4523      61.10623       58.375584      58.375584     -0.25726628    -0.075934682   -0.076053596    0.072417585    0.068855519   -0.017348507    4558.0749      275078.42    
    656000   656            1.0044614     -0.10271989     7.6055045      1.5066854      10.391008      9.1121899     -2.7855036      730.9904       61.118065      58.368939      58.368939     -0.25616376    -0.045200721   -0.0067951995   0.083926989    0.0042568334  -0.01281075     4585.9784      275046.85    
    660000   660            1.0012457      0.014051903    7.6031269      1.5018619      10.393741      9.1049888     -2.7906143      2409.8864      61.129901      58.337945      58.337945     -0.15773592     0.044905241    0.15498639     0.060687693    0.10518021    -0.016179834    4614.0139      275023.19    
    664000   664            0.99938329    -0.17726037     7.6060839      1.4990683      10.393966      9.1051522     -2.7878817      2427.2013      61.141736      58.353963      58.353963     -0.26180041    -0.0022539362  -0.26772677     0.022565448   -0.066842908   -0.039513341    4642.0819      275001.41    
    668000   668            1.0017599      0.029380644    7.6141109      1.5026331      10.397823      9.1167441     -2.7837122     -137.92997      61.153571      58.346464      58.346464     -0.12785056     0.14943074     0.066561752    0.12017388     0.08435192    -0.054832587    4670.0692      274974.79    
    672000   672            1.0033333     -0.066427535    7.6075858      1.5049932      10.395981      9.1125791     -2.7883953      854.16245      61.165407      58.338301      58.338301     -0.16579807    -0.1036632      0.07017866    -0.061715389    0.0072413333   0.063868558    4697.7652      274931.12    
    676000   676            1.0001275     -0.095546852    7.6057001      1.5001846      10.391774      9.1058847     -2.7860736      2417.9379      61.177242      58.340838      58.340838     -0.29143222     0.045196314   -0.040404646   -0.068718544    0.016409576    0.011476414    4726.2156      274931.51    
    680000   680            0.99889744     0.079939813    7.6034985      1.4983395      10.392012      9.1018381     -2.7885132      3384.796       61.189078      58.318661      58.318661     -0.14000051     0.34410016     0.035719793    0.021358824    0.027934593    0.099536334    4754.2582      274907.99    
    684000   684            1.0019437      0.026631134    7.6077594      1.5029089      10.393849      9.1106682     -2.7860892      1441.9724      61.200913      58.316389      58.316389     -0.15672857     0.13483989     0.10178209    -0.11569282     0.008536019   -0.059348058    4782.6476      274904.35    
    688000   688            0.99896898     0.0011556921   7.6083164      1.4984468      10.396189      9.1067632     -2.7878728      2377.487       61.212749      58.3133        58.3133       -0.074820011   -0.0091707141   0.087457801   -0.043065653    0.10712257     0.061678457    4810.853       274889.9     
    692000   692            0.99967835     0.039577875    7.6069327      1.4995109      10.39224       9.1064436     -2.7853075      2499.6799      61.224584      58.31175       58.31175      -0.14735399     0.11776804     0.14831957     0.068213757    0.052743262   -0.043056275    4839.112       274878.35    
    696000   696            1.0005195     -0.13108646     7.6045412      1.5007726      10.393097      9.1053137     -2.7885562      2807.3726      61.236419      58.296888      58.296888     -0.30499099     0.044426509   -0.13269491    -0.043807503   -0.021861572   -0.053928393    4867.2592      274860.28    
    700000   700            0.99698755    -0.029155151    7.6029768      1.4954747      10.392385      9.0984515     -2.7894079      4408.9226      61.248255      58.281559      58.281559     -0.18532756     0.13252764    -0.034665534    0.0011121139   0.098368695   -0.075805834    4895.4502      274844.56    
    704000   704            0.9994108     -0.077283558    7.6074891      1.4991096      10.392609      9.1065987     -2.7851194      2619.2032      61.26009       58.297451      58.297451     -0.31161855    -0.03702674     0.11679461    -0.060611108    0.027687386   -0.076834611    4923.9192      274844.22    
    708000   708            0.99872026    -0.039760747    7.6097099      1.4980738      10.39572       9.1077837     -2.78601        2404.9381      61.271926      58.291633      58.291633     -0.27407777     0.11273368     0.042061851   -0.060599892    0.030404691   -0.0237549      4951.8051      274811.2     
    712000   712            0.99647315    -0.089246375    7.6120801      1.4947031      10.394849      9.1067832     -2.7827685      2683.684       61.283761      58.312398      58.312398     -0.28681405     0.14225268    -0.12317775    -0.007493478    0.039773926    0.10613609     4980.1242      274802.14    
    716000   716            1.0022203      0.062229592    7.610071       1.5033238      10.393941      9.1133948     -2.7838696      1242.9786      61.295596      58.278458      58.278458     -0.078277377    0.15139637     0.11356978    -0.04598428     0.047499114    0.00019773426  5008.2065      274779.87    
    720000   720            0.99841443     0.063345413    7.6064932      1.497615       10.394147      9.1041082     -2.7876539      3393.732       61.307432      58.251755      58.251755     -0.10154431     0.12873165     0.1628489     -0.031486952    0.088069562   -0.017553337    5036.0526      274744.64    
    724000   724            1.0000667     -0.046160722    7.6064331      1.5000934      10.394166      9.1065265     -2.7877327      2900.4495      61.319267      58.262575      58.262575     -0.13145596     0.033216544   -0.040242754   -0.031935128    0.048979417   -0.0069079122   5064.638       274749.62    
    728000   728            1.0035028     -0.022824063    7.6101916      1.5052476      10.396501      9.1154391     -2.7863094      940.30987      61.331103      58.256149      58.256149     -0.21473503     0.075428766    0.070834079    0.15634131    -0.017791408   -0.045670623    5092.8815      274735.77    
    732000   732            1.002525      -0.035985075    7.6081781      1.5037809      10.396045      9.111959      -2.7878667      1780.1013      61.342938      58.257171      58.257171     -0.15370016     0.069561547   -0.023816617   -0.045922902   -0.049418969   -0.032508734    5121.1339      274722.25    
    736000   736            0.99910274    -0.12142985     7.6063972      1.4986475      10.396128      9.1050447     -2.7897307      3394.8642      61.354773      58.234615      58.234615     -0.28860447    -0.024204545   -0.051480541    0.071904781    0.037616028    0.076261178    5149.6837      274724.43    
    740000   740            1.0007412     -0.1022272      7.6057178      1.5011051      10.3951        9.1068229     -2.7893819      3045.6199      61.366609      58.238264      58.238264     -0.28614887    -0.013702935   -0.006829808   -0.0095409095   0.039186286   -0.011641945    5177.7585      274701.08    
    744000   744            1.001748      -0.093740449    7.6112767      1.5026154      10.397979      9.1138921     -2.7867023      1502.296       61.378444      58.241928      58.241928     -0.34458346    -0.041943926    0.10530604    -0.066472683   -0.01606957    -0.037085477    5205.8769      274679.98    
    748000   748            0.99751877    -0.16569372     7.607644       1.4962715      10.393322      9.1039156     -2.7856783      3809.7619      61.39028       58.252369      58.252369     -0.3432671     -0.096255017   -0.05755906    -0.026464289   -0.042420031    0.059615394    5234.0509      274661.72    
    752000   752            1.0013967     -0.024846222    7.6075923      1.5020884      10.395096      9.1096806     -2.7875033      2561.7743      61.402115      58.236026      58.236026     -0.20748334     0.13845171    -0.0055070326   0.061178007   -0.046495674   -0.0099461645   5262.3107      274647.83    
    756000   756            1.0023328      0.11360465     7.6097237      1.5034925      10.396966      9.1132162     -2.7872421      1817.6191      61.41395       58.217163      58.217163     -0.06462832     0.26245903     0.14298323    -0.013785106    0.0043134404  -0.010654686    5290.2394      274616.61    
    760000   760            0.9984287     -0.032802481    7.6065285      1.4976364      10.394688      9.1041649     -2.7881592      3915.0403      61.425786      58.218251      58.218251     -0.15448365     0.066464416   -0.010388203    0.0048614672  -0.034066224    0.057475419    5318.2458      274589.43    
    764000   764            1.0000284     -0.15676502     7.610681       1.500036       10.396898      9.1107169     -2.7862171      2487.9344      61.437621      58.213985      58.213985     -0.24299617    -0.20649264    -0.020806252   -0.0056813914   0.0046793005   0.086147599    5346.0163      274550.13    
    768000   768            0.99890828    -0.036688092    7.6097175      1.4983558      10.397205      9.1080733     -2.7874878      3138.7932      61.449457      58.187017      58.187017     -0.23811344     0.16911853    -0.04106937     0.044457922   -0.021509703    0.071531953    5373.9061      274517.04    
    772000   772            0.99917397    -0.20351974     7.6054634      1.4987543      10.395971      9.1042177     -2.7905072      4061.8848      61.461292      58.193873      58.193873     -0.41116999    -0.10413299    -0.095256251    0.026900199   -0.084144689    0.06019126     5401.6932      274478.78    
    776000   776            1.0031145     -0.061263869    7.6065951      1.5046652      10.394155      9.1112602     -2.7875595      2522.6785      61.473128      58.190707      58.190707     -0.15155378    -0.15261309     0.12037526     0.062537749    0.076296331    0.072016283    5429.6148      274447.44    
    780000   780            1.0000918     -0.048866949    7.602425       1.500131       10.393587      9.1025561     -2.7911619      4542.604       61.484963      58.162977      58.162977     -0.1451107      0.01844881    -0.019938951   -0.10007162     0.066832556   -0.043196344    5457.7636      274427.55    
    784000   784            0.99963195    -0.13889622     7.6064889      1.4994413      10.393766      9.1059302     -2.7872768      3832.3199      61.496798      58.183529      58.183529     -0.30232653    -0.06406163    -0.050300506    0.021276583    0.017941298    0.026061275    5485.7781      274400.86    
    788000   788            1.0021833     -0.034662236    7.6066108      1.5032682      10.396404      9.109879      -2.7897933      2995.0703      61.508634      58.169959      58.169959     -0.22373378     0.11854393     0.0012031412  -0.037733576    0.051646655    0.016658377    5513.9906      274384.01    
    792000   792            1.0017379      0.079260264    7.6041341      1.5026002      10.392712      9.1067343     -2.7885778      3756.1767      61.520469      58.166902      58.166902     -0.059489165    0.13656306     0.1607069      0.009098717    0.038618262    0.0018654035   5541.8436      274349.25    
    796000   796            0.99642266    -0.18370132     7.6132666      1.4946274      10.397774      9.107894      -2.7845076      3549.7619      61.532305      58.176586      58.176586     -0.23178206    -0.0881615     -0.23116041    -0.031349033    0.16943207    -0.060667244    5570.0024      274329.61    
    800000   800            1.0031146     -0.1296478      7.6106464      1.5046653      10.395961      9.1153117     -2.7853146      1927.1133      61.54414       58.162508      58.162508     -0.28102622     0.030334633   -0.13825181    -0.083795082   -0.00057510265  0.075083629    5598.1038      274307.09    
    804000   804            1.0010669     -0.071756009    7.6081021      1.5015937      10.395561      9.1096959     -2.7874588      3246.7486      61.555975      58.148294      58.148294     -0.2673275     -0.00067140791  0.052730886    0.036317754    0.0031496479   0.0064841992   5626.1943      274283.97    
    808000   808            1.0008619     -0.080376691    7.6070743      1.5012862      10.396281      9.1083605     -2.7892067      3601.3914      61.567811      58.138349      58.138349     -0.16026464     0.02752734    -0.10839277    -0.014748759    0.07823514    -0.015094816    5653.9397      274244.06    
    812000   812            1.0000315     -0.022559656    7.6104078      1.5000406      10.39483       9.1104484     -2.7844221      3182.8902      61.579646      58.14924       58.14924      -0.19375186     0.11602851     0.010044382   -0.014219898    0.021687187    0.16501129     5682.2314      274230.64    
    816000   816            0.99907162     0.076267549    7.6137047      1.4986008      10.397349      9.1123055     -2.7836447      2815.9388      61.591482      58.156091      58.156091     -0.19743722     0.26459602     0.16164385    -0.050151048   -0.0087164394   0.071471989    5710.8115      274230.93    
    820000   820            0.9969183     -0.088420561    7.6093276      1.4953708      10.393559      9.1046984     -2.7842314      4586.5303      61.603317      58.144476      58.144476     -0.14107343    -0.10860056    -0.015587694    0.05869833    -0.024152483    0.070531643    5739.0716      274215.64    
    824000   824            1.0021151     -0.047824604    7.6095888      1.503166       10.397141      9.1127548     -2.7875526      2819.1856      61.615152      58.12317       58.12317      -0.22619206     0.10292965    -0.020211398   -0.029865133   -0.0087572149  -0.011166585    5767.5631      274211.23    
    828000   828            1.0003856     -0.13017177     7.6118105      1.5005718      10.395326      9.1123823     -2.7835152      2955.5323      61.626988      58.134882      58.134882     -0.18442372    -0.10701758    -0.099074026   -0.075607469   -0.058473716   -0.10448421     5796.0546      274206.58    
    832000   832            0.99753303    -0.052224714    7.6115688      1.4962929      10.396579      9.1078618     -2.78501        4029.7494      61.638823      58.128809      58.128809     -0.13789653     0.018218051   -0.036995665    0.12874032     0.054122574    0.12836999     5824.5293      274200.92    
    836000   836            0.99841692    -0.18136956     7.6049973      1.4976187      10.39105       9.102616      -2.7860531      5267.1986      61.650659      58.123054      58.123054     -0.39248942    -0.010587051   -0.1410322      0.087942543    0.064868269    0.021848124    5852.8787      274189.16    
    840000   840            1.001517       0.10346495     7.6098904      1.5022688      10.393273      9.1121592     -2.7833822      3165.0097      61.662494      58.117246      58.117246     -0.18848367     0.2880774      0.21080112     0.021162429    0.040432242   -0.033737083    5880.9566      274164.6     
[...]
  39768000   39768          0.99750109    -0.27586459     7.738327       1.496245       10.405549      9.234572      -2.667222       319830.21      176.84472      34.696306      34.696306     -0.75840143    -0.16704171     0.097849371    0.04887714    -0.012185149    0.017449114    312958.39      1825.748     
  39772000   39772          1.0016018     -0.18148305     7.7415589      1.502396       10.405587      9.243955      -2.6640279      317734.84      176.85655      34.708285      34.708285     -0.70722645     0.017908847    0.14486845     0.052343397   -0.024405186   -0.0019356281   312991.3       1794.2778    
  39776000   39776          0.99942531    -0.11341386     7.741189       1.4991313      10.405385      9.2403204     -2.6641958      318581.36      176.86839      34.70191       34.70191      -0.54098463    -0.0012583719   0.20200142     0.1218705     -0.0056635236   0.061553822    313023.75      1762.8047    
  39780000   39780          0.99609207    -0.18662954     7.7402986      1.4941315      10.406884      9.2344301     -2.6665856      319938.35      176.88023      34.697452      34.697452     -0.61817391     0.035998864    0.022286441   -0.0060711214  -0.029925464   -0.068010301    313056.71      1731.3342    
  39784000   39784          1.0017586     -0.084573628    7.7368418      1.5026313      10.403628      9.2394731     -2.6667866      318822.77      176.89206      34.697601      34.697601     -0.56668985     0.12154681     0.19142215     0.036113678    0.0022128462   0.082819416    313088.97      1699.8597    
  39788000   39788          1.0002724     -0.28998001     7.7422701      1.5004019      10.406578      9.242672      -2.6643075      318126.19      176.9039       34.698923      34.698923     -0.90272277    -0.024484555    0.057267301    0.11237384    -0.060661857   -0.0013652218   313121.94      1668.3887    
  39792000   39792          0.99875413    -0.40219057     7.7352583      1.4981246      10.402478      9.2333829     -2.6672202      320249.33      176.91573      34.696069      34.696069     -1.002269      -0.16718465    -0.037118107    0.046474458   -0.04503294    -0.014509326    313154.44      1636.915     
  39796000   39796          0.99952733    -0.15103084     7.7393043      1.4992844      10.407011      9.2385887     -2.6677066      319100.95      176.92757      34.692198      34.692198     -0.77954902     0.17801017     0.14844635    -0.069356821   -0.059417182    0.017242988    313187.48      1605.4439    
  39800000   39800          0.99813212    -0.30556887     7.7443067      1.4971916      10.407476      9.2414982     -2.6631689      318468.66      176.9394       34.70271       34.70271      -0.76850881    -0.15293178     0.0047339675  -0.11172069     0.027876453    0.044472127    313220.54      1573.9726    
  39804000   39804          1.0046858     -0.072317875    7.7373183      1.507022       10.405054      9.2443404     -2.6677354      317850.28      176.95124      34.691975      34.691975     -0.47530128     0.18060725     0.077740406   -0.01345573     0.067617533    0.019649222    313252.99      1542.4979    
  39808000   39808          0.99855635    -0.10939593     7.7387395      1.4978279      10.405181      9.2365674     -2.6664415      319633.09      176.96307      34.696838      34.696838     -0.6550083      0.17859306     0.14822745     0.055343161   -0.050113601   -0.0037751196   313285.94      1511.0254    
  39812000   39812          1.0021994     -0.32417814     7.7373386      1.5032925      10.402874      9.240631      -2.6655356      318739.25      176.97491      34.701681      34.701681     -0.87267034    -0.081186933   -0.018677156    0.07405232     0.06314018    -0.02845453     313318.07      1479.5488    
  39816000   39816          0.99893431    -0.27353691     7.746655       1.4983948      10.40773       9.2450498     -2.661075       317769.77      176.98674      34.708617      34.708617     -0.86111149     0.059472468   -0.01897171     0.0033928801   0.0041220293  -0.021215975    313351.06      1448.076     
  39820000   39820          0.99787747    -0.24976732     7.7430524      1.4968096      10.408396      9.2398619     -2.6653436      318967.52      176.99858      34.703297      34.703297     -0.83918298    -0.0021513392   0.092032349   -0.037241412    0.0057036703   0.038691535    313383.3       1416.5996    
  39824000   39824          0.9956482     -0.2981942      7.7383759      1.4934657      10.407059      9.2318416     -2.6686834      320804.66      177.01042      34.696121      34.696121     -0.78532173    -0.035991483   -0.073269395    0.039049402   -0.002203931   -4.0375428e-05  313416.12      1385.1255    
  39828000   39828          1.0004038     -0.27925661     7.7408537      1.5005991      10.406095      9.2414528     -2.6652411      318657.89      177.02225      34.700649      34.700649     -0.68000367    -0.040195364   -0.11757078     0.022438462    0.10765129     0.034307243    313448.88      1353.6509    
  39832000   39832          0.99978374    -0.25494464     7.7449868      1.499669       10.409737      9.2446558     -2.6647504      317961.17      177.03409      34.69781       34.69781      -0.69455559    -0.018570201   -0.051708125   -0.01929255     0.039871659   -0.02247833     313481.54      1322.1756    
  39836000   39836          0.99612481    -0.26869657     7.7426778      1.4941806      10.408344      9.2368584     -2.6656658      319747.29      177.04592      34.698935      34.698935     -0.81426652    -0.065823736    0.074000538    0.025116321    0.036313717   -0.0078502167   313513.85      1290.6986    
  39840000   39840          0.99768962    -0.19203669     7.7458021      1.4965278      10.407919      9.2423299     -2.6621166      318537.13      177.05776      34.699915      34.699915     -0.59700008    -0.049874858    0.070764857    0.083160728   -0.032940965    0.0076167256   313545.85      1259.2203    
  39844000   39844          1.0016857     -0.30444691     7.7427614      1.5025219      10.407596      9.2452833     -2.6648344      317893.46      177.06959      34.692203      34.692203     -0.91305219    -0.16813441     0.16784587     0.073451593   -0.012728623   -0.060890203    313578.41      1227.744     
  39848000   39848          0.99783604    -0.2323393      7.7428769      1.4967474      10.40563       9.2396243     -2.6627535      319197.12      177.08143      34.701002      34.701002     -0.64324506     0.047641744   -0.1014146     -0.056730534   -0.041998792    0.0078131918   313610.6       1196.2661    
  39852000   39852          1.0013758     -0.3025379      7.7459897      1.502057       10.41061       9.2480467     -2.6646205      317320.76      177.09326      34.693925      34.693925     -0.81271023    -0.073886823   -0.021016649    0.025024985    0.036504136    0.030690202    313643.31      1164.79      
  39856000   39856          0.9994231     -0.3039154      7.7444465      1.499128       10.410492      9.2435745     -2.6660454      318358.2       177.1051       34.681643      34.681643     -0.90251588    -0.029288822    0.020058506   -0.038293236    0.062576841    0.089291539    313675.36      1133.3112    
  39860000   39860          0.99947771    -0.30599172     7.7402659      1.4992099      10.407836      9.2394759     -2.6675702      319309.09      177.11693      34.675456      34.675456     -0.80053115    -0.043577171   -0.073866842   -0.012471855   -0.019802599    0.10303993     313708.26      1101.8353    
  39864000   39864          0.99639879    -0.12363362     7.7408203      1.4945916      10.407757      9.2354119     -2.6669371      320252.67      177.12877      34.683745      34.683745     -0.61307628     0.2111339      0.031041509    0.025311406    0.05007272     0.03851803     313740.55      1070.3571    
  39868000   39868          1.0020146     -0.21700605     7.7389414      1.5030153      10.408209      9.2419567     -2.669268       318799.67      177.1406       34.67173       34.67173      -0.70748081     0.068086635   -0.011623986    0.07166576     0.059777087   -0.070941442    313774.02      1038.8826    
  39872000   39872          1.0005118     -0.28390337     7.7409917      1.5007611      10.409058      9.2417528     -2.6680663      318871.07      177.15244      34.677731      34.677731     -0.79025004    -0.01243498    -0.049025092    0.12302688    -0.048515668    0.097576767    313806.36      1007.404     
  39876000   39876          0.99662128    -0.12416594     7.7400405      1.4949253      10.405521      9.2349658     -2.6654803      320430.29      177.16428      34.683889      34.683889     -0.53011438     0.03882043     0.11879614     0.0082838561   0.098839942   -0.0042354293   313838.94      975.92608    
  39880000   39880          0.99968724    -0.12626339     7.7422253      1.4995242      10.406498      9.2417495     -2.6642731      318923.33      177.17611      34.68287       34.68287      -0.54841675     0.098003919    0.071622677    0.018680769    0.074029742   -0.0039622957   313871.68      944.44837    
  39884000   39884          0.99780226    -0.14370285     7.7456244      1.4966968      10.409284      9.2423212     -2.6636592      318820.08      177.18795      34.681186      34.681186     -0.72324178     0.15716618     0.13496705     0.062579712    0.16940187    -0.065684293    313903.81      912.96867    
  39888000   39888          0.99988592    -0.18370661     7.7354348      1.4998222      10.403532      9.235257      -2.6680974      320439.78      177.19978      34.670979      34.670979     -0.66563966    -0.024562688    0.13908251     0.0078524552  -0.019383205   -0.058696868    313936.06      881.48915    
  39892000   39892          1.0009977     -0.21670588     7.7407575      1.50149        10.405265      9.2422475     -2.6645076      318885.67      177.21162      34.683493      34.683493     -0.66476002    -0.049065017    0.063707392   -0.020543331   -0.046932128   -0.026850773    313968.13      850.00896    
  39896000   39896          1.0033462     -0.25509163     7.7396119      1.5050126      10.402352      9.2446244     -2.6627403      318373.34      177.22345      34.686962      34.686962     -0.68506829    -0.097897535    0.017690931   -0.059172824    0.042901033    0.066043549    314000.67      818.52993    
  39900000   39900          0.99785121    -0.19693061     7.7379627      1.4967702      10.402561      9.2347329     -2.6645985      320634.52      177.23529      34.687975      34.687975     -0.62967174     0.040526853   -0.0016469465  -0.04724796     0.024792382   -0.078377829    314032.88      787.04981    
  39904000   39904          1.000126      -0.25490917     7.743079       1.5001824      10.408432      9.2432614     -2.6653534      318734.2       177.24712      34.687974      34.687974     -0.75344241    -0.035630368    0.024345267   -0.01373683     0.029836014    0.11456575     314065.39      755.5703     
  39908000   39908          0.99950481    -0.19204966     7.744515       1.4992506      10.40963       9.2437655     -2.6651155      318646.58      177.25896      34.674335      34.674335     -0.7645843      0.0054489606   0.18298636     0.045434246   -0.11341545     0.072629182    314097.62      724.08992    
  39912000   39912          0.99746404    -0.23691431     7.740521       1.4961894      10.404318      9.2367104     -2.6637972      320263.23      177.27079      34.687932      34.687932     -0.73233017     0.0043886353   0.017198614   -0.037624546    0.015865262    0.054587514    314130.05      692.60985    
  39916000   39916          0.99991865    -0.29368084     7.7378336      1.4998713      10.401039      9.2377049     -2.663205       320065.33      177.28263      34.678632      34.678632     -0.78243787    -0.17378785     0.075183194    0.086845558    0.032307849   -0.035647242    314161.83      661.12821    
  39920000   39920          0.99873791    -0.20262489     7.7452928      1.4981002      10.408875      9.243393      -2.6635824      318806.65      177.29446      34.680457      34.680457     -0.75792627     0.030473756    0.11957785     0.025860937   -0.046828304   -0.0069711443   314194.73      629.64876    
  39924000   39924          1.0001383     -0.30737841     7.7407373      1.5002008      10.404087      9.2409381     -2.6633496      319384.39      177.3063       34.677441      34.677441     -0.74398435     0.013900163   -0.19205105    -0.034847054   -0.03075697    -0.087800035    314226.12      598.16614    
  39928000   39928          0.99765246    -0.23687793     7.7387432      1.4964721      10.402817      9.2352152     -2.6640735      320702.93      177.31814      34.671748      34.671748     -0.74808513     0.029951185    0.0075001637   0.00062437228 -0.01228896    -0.00090458257  314258.24      566.68486    
  39932000   39932          1.0023755     -0.21979318     7.7417015      1.5035566      10.404401      9.2452581     -2.662699       318460.07      177.32997      34.680285      34.680285     -0.69115734     0.034611124   -0.0028333077  -0.035519192    0.0026200636   0.029693901    314290.4       535.20353    
  39936000   39936          0.9985615     -0.21275611     7.7429041      1.4978356      10.405907      9.2407397     -2.663003       319506.46      177.34181      34.677654      34.677654     -0.70443352     0.0096244854   0.056540713    0.010829109    0.025819853   -0.0023455666   314322.34      503.7217     
  39940000   39940          1.003914      -0.24733684     7.738583       1.5058643      10.40449       9.2444473     -2.665907       318695.21      177.35364      34.666941      34.666941     -0.76240542     0.0031450423   0.017249858    0.057888621    0.05694656    -0.012099556    314354.7       472.24041    
  39944000   39944          0.99996042    -0.41062266     7.7449929      1.499934       10.407483      9.2449269     -2.6624897      318612.22      177.36548      34.672494      34.672494     -0.86202606    -0.19500653    -0.1748354     -0.031849048    0.046855886    0.037624613    314386.7       440.75844    
  39948000   39948          0.99955729    -0.2354373      7.7401895      1.4993293      10.406984      9.2395188     -2.6667948      319858.35      177.37731      34.663399      34.663399     -0.77665675    -0.076789659    0.1471345      0.056960345    0.056794667    0.023205154    314419.26      409.2771     
  39952000   39952          1.0022638     -0.22472432     7.7440971      1.5033891      10.407405      9.2474861     -2.6633083      318085.15      177.38915      34.668046      34.668046     -0.727421       0.015328978    0.03791908    -0.037331688    0.039480703   -0.033913249    314451.78      377.79549    
  39956000   39956          1.0014335     -0.32395572     7.7446194      1.5021437      10.406495      9.246763      -2.6618755      318273.42      177.40098      34.679927      34.679927     -0.69228729    -0.14805457    -0.1315253      0.091835692    0.0095102974   0.001630975    314483.85      346.31318    
  39960000   39960          0.99825743    -0.2185947      7.7440719      1.4973795      10.407609      9.2414514     -2.6635373      319500.12      177.41282      34.674874      34.674874     -0.66243966     0.010751779   -0.0040962117   0.0054475918   0.023192802    0.0113693      314515.96      314.83079    
  39964000   39964          1.0017253     -0.23217986     7.7381676      1.5025813      10.401207      9.2407489     -2.6630391      319681.01      177.42465      34.66967       34.66967      -0.72388739     0.047468682   -0.020120866    0.03699358     0.05851228    -0.10692175     314548.65      283.3488     
  39968000   39968          1.0011906     -0.22068783     7.7419113      1.5017792      10.406181      9.2436905     -2.6642701      319044.2       177.43649      34.665973      34.665973     -0.77193109     0.0016409696   0.10822662     0.022720741    0.060650926    0.086791863    314580.86      251.86618    
  39972000   39972          0.99914408    -0.1445255      7.744322       1.4987095      10.406214      9.2430315     -2.6618922      319218.53      177.44833      34.669296      34.669296     -0.67063699     0.06867359     0.16838691    -0.054597906    0.074755042    0.03647023     314613.14      220.38347    
  39976000   39976          1.0005428     -0.24825882     7.7418926      1.5008076      10.407081      9.2427002     -2.6651889      319319.16      177.46016      34.664799      34.664799     -0.70467235    -0.025592994   -0.014511112   -0.033736342    0.045668501   -0.073235906    314645.1       188.9004     
  39980000   39980          1.0013711     -0.38610086     7.7424728      1.50205        10.405754      9.2445228     -2.6632816      318931.77      177.472        34.667642      34.667642     -0.95124304    -0.19872722    -0.0083323273  -0.031951916    0.013063353   -0.023203217    314677.48      157.41745    
  39984000   39984          0.99955562    -0.32427469     7.7436853      1.4993268      10.406436      9.2430121     -2.6627507      319300.4       177.48383      34.665745      34.665745     -0.77110698    -0.039703618   -0.16201346    -0.046522786    0.00052534958  0.0092579143   314709.37      125.93412    
  39988000   39988          0.99629218    -0.20103        7.7437652      1.4944317      10.408319      9.2381968     -2.6645538      320413.65      177.49567      34.659702      34.659702     -0.71072776     0.016461371    0.091176373   -0.026042387    0.029476482   -0.08044403     314741.77      94.450867    
  39992000   39992          1.0025909     -0.18912071     7.7439144      1.5038797      10.407864      9.2477941     -2.6639493      318269.54      177.5075       34.663066      34.663066     -0.82398265     0.11516602     0.14145449    -0.020260678    0.0086794849  -0.025605658    314773.92      62.967378    
  39996000   39996          1.0017679     -0.1383061      7.7407568      1.5026451      10.404241      9.2434019     -2.6634838      319286.6       177.51934      34.659175      34.659175     -0.5378606      0.006702799    0.11623951     0.0065149832   0.050951156   -0.049851703    314806.49      31.483797    
  40000000   40000          1.0004365     -0.061858702    7.7402527      1.5006481      10.40478       9.2409008     -2.6645274      319877.13      177.53117      34.657538      34.657538     -0.47744385     0.097074051    0.19479369     0.060657807    0.013977641    0.036024578    314838.3       0            
Loop time of 314838 on 18 procs for 40000000 steps with 225980 atoms

Performance: 10977.063 tau/day, 127.049 timesteps/s
95.6% CPU use with 18 MPI tasks x 1 OpenMP threads

MPI task timing breakdown:
Section |  min time  |  avg time  |  max time  |%varavg| %total
---------------------------------------------------------------
Pair    | 23292      | 25396      | 25928      | 349.0 |  8.07
Bond    | 1.1339e+05 | 1.2176e+05 | 1.2631e+05 | 803.0 | 38.67
Neigh   | 275.8      | 279.49     | 284.11     |  14.6 |  0.09
Comm    | 53743      | 58499      | 68654      |1296.4 | 18.58
Output  | 1773.8     | 1773.9     | 1773.9     |   0.0 |  0.56
Modify  | 1.0121e+05 | 1.0174e+05 | 1.0215e+05 |  75.3 | 32.31
Other   |            | 5395       |            |       |  1.71

Nlocal:        12554.4 ave       12810 max       12394 min
Histogram: 3 0 3 5 2 2 2 0 0 1
Nghost:          22654 ave       23061 max       22239 min
Histogram: 2 1 2 2 2 2 3 0 3 1
Neighs:              0 ave           0 max           0 min
Histogram: 18 0 0 0 0 0 0 0 0 0

Total # of neighbors = 0
Ave neighs/atom = 0
Ave special neighs/atom = 66.124259
Neighbor list builds = 211734
Dangerous builds = 0

# GENERATION RESTART
write_restart ./out.deform.restart
System init for write_restart ...
Generated 0 of 36 mixed pair_coeff terms from geometric mixing rule
write_data    ./out.deform.data pair ij
System init for write_data ...
Generated 0 of 36 mixed pair_coeff terms from geometric mixing rule
Total wall time: 87:27:23
