LAMMPS (15 Sep 2022)
OMP_NUM_THREADS environment is not set. Defaulting to 1 thread. (src/comm.cpp:98)
  using 1 OpenMP thread(s) per MPI task
package gpu 0 binsize 12.0
# LAMMPS Script for deform
# Generated 12/17/2022

# INIT PARAMS & READ CONF
include   "/work_bgfs/h/harshad/simulation_9/quiescent_script/filler_repulsive/system.init"
# UNITS
units		lj
dimension	3
atom_style	bond

# INPUT FILE
pair_style	lj/cut 2.5
bond_style	hybrid harmonic fene
read_data /work_bgfs/h/harshad/simulation_9/np7/5000chain/150phr/9_stretching/filler_repulsive/quiescent/thermal_replicates/4.npt.data
Reading data file ...
  orthogonal box = (0.41011869 0.41011869 0.41011869) to (59.589881 59.589881 59.589881)
  2 by 3 by 3 MPI processor grid
  reading atoms ...
  225980 atoms
  reading velocities ...
  225980 velocities
  scanning bonds ...
  16 = max bonds/atom
  reading bonds ...
  923860 bonds
Finding 1-2 1-3 1-4 neighbors ...
  special bond factors lj:    0        0        0       
  special bond factors coul:  0        0        0       
    19 = max # of 1-2 neighbors
   285 = max # of 1-3 neighbors
  4477 = max # of 1-4 neighbors
   201 = max # of special neighbors
  special bonds CPU = 0.298 seconds
  read_data CPU = 2.528 seconds
include   "/work_bgfs/h/harshad/simulation_9/quiescent_script/filler_repulsive/system.kappa1000.settings"
# ATOM TYPE
mass  1  1.0 #backbone
mass  2  1.0 #endmer
mass  3  1.0 #crosslinker
mass  4  1.0 #outer shell
mass  5  1.0 #inner shell 2
mass  6  1.0 #inner-most shell
mass  7  1.0 #center bead
mass  8  1.0 #endmer post crosslinking
mass  9  1.0 #crosslinker post crosslinking

# BOND
bond_coeff 1 harmonic 1000 0.951057
bond_coeff 2 harmonic 1000 1.000000
bond_coeff 3 harmonic 1000 1.380039
bond_coeff 4 harmonic 1000 1.414214
bond_coeff 5 fene 30.0 1.50 1.0 1.0
special_bonds lj 0.0 1.0 1.0
Finding 1-2 1-3 1-4 neighbors ...
  special bond factors lj:    0        1        1       
  special bond factors coul:  0        0        0       
    19 = max # of 1-2 neighbors
   285 = max # of 1-3 neighbors
  4477 = max # of 1-4 neighbors
   201 = max # of special neighbors
  special bonds CPU = 0.290 seconds

# PAIR
variable rcut equal 2^(1/6)
pair_coeff  1*3 1*9 1 1
pair_coeff  4*7 4*7 1 1 ${rcut}
pair_coeff  4*7 4*7 1 1 1.12246204830937
pair_coeff  4*9 8*9 1 1

pair_modify  shift yes
neigh_modify delay 1 check yes

# MAKE GROUPS
group polymer type 1 2 3 8 9
102500 atoms in group polymer
#group ins     type 1
#group strand  type 1 2 8
#group ends    type 2 8
#group xlinks  type 3 9
group filler  type 4 5 6 7
123480 atoms in group filler

neighbor 1.5 multi
comm_modify     mode multi cutoff/multi 1 1.5 cutoff/multi * 2.8

# INPUTS FROM SBATCH
variable Temp          equal 1.0
variable gamma_total   equal 2.0
variable gamma_rate    equal 0.00005
variable dt            equal 0.001
variable Nfreq         equal 4000
variable Nrepeat_2     equal 100
variable Nevery_1      equal 1
variable Nrepeat_1     equal 1

variable Run           equal ${gamma_total}/${gamma_rate}/${dt}
variable Run           equal 2/${gamma_rate}/${dt}
variable Run           equal 2/5e-05/${dt}
variable Run           equal 2/5e-05/0.001

# RUN OPTIONS
run_style verlet
timestep  ${dt}
timestep  0.001

# RESTART
restart  ${Nfreq} cycle.1.restart cycle.2.restart
restart  4000 cycle.1.restart cycle.2.restart

# SAVE RESTARTS EVERY 10% EXTENSION
variable RestFreq      equal 0.1/${gamma_rate}/${dt}
variable RestFreq      equal 0.1/5e-05/${dt}
variable RestFreq      equal 0.1/5e-05/0.001
restart  ${RestFreq} deform.*.restart
restart  2000000 deform.*.restart

# COMPUTE ke/atom, pe/atom, pxx/atom, position and time-avg
compute     ke_atm          all     ke/atom
compute     p_atm           all     stress/atom NULL
compute     pe_atm          all     pe/atom
compute     ebond_atm       all     pe/atom bond
compute     posit_atm       all     property/atom x y z
fix         avg_ke_atm_1    all     ave/atom ${Nevery_1} ${Nrepeat_1} ${Nfreq} c_ke_atm
fix         avg_ke_atm_1    all     ave/atom 1 ${Nrepeat_1} ${Nfreq} c_ke_atm
fix         avg_ke_atm_1    all     ave/atom 1 1 ${Nfreq} c_ke_atm
fix         avg_ke_atm_1    all     ave/atom 1 1 4000 c_ke_atm
fix         avg_pxx_atm_1   all     ave/atom ${Nevery_1} ${Nrepeat_1} ${Nfreq} c_p_atm[*]
fix         avg_pxx_atm_1   all     ave/atom 1 ${Nrepeat_1} ${Nfreq} c_p_atm[*]
fix         avg_pxx_atm_1   all     ave/atom 1 1 ${Nfreq} c_p_atm[*]
fix         avg_pxx_atm_1   all     ave/atom 1 1 4000 c_p_atm[*]
fix         avg_pe_atm_1    all     ave/atom ${Nevery_1} ${Nrepeat_1} ${Nfreq} c_pe_atm
fix         avg_pe_atm_1    all     ave/atom 1 ${Nrepeat_1} ${Nfreq} c_pe_atm
fix         avg_pe_atm_1    all     ave/atom 1 1 ${Nfreq} c_pe_atm
fix         avg_pe_atm_1    all     ave/atom 1 1 4000 c_pe_atm
#fix         avg_posit_atm_1 all     ave/atom ${Nevery_1} ${Nrepeat_1} ${Nfreq} c_posit_atm[1] c_posit_atm[2] c_posit_atm[3]
dump        dump_1 all custom ${Nfreq} ${out_dir}traj.${Nevery_1}_${Nrepeat_1}_${Nfreq}.xyz mol type x y z f_avg_ke_atm_1 f_avg_pe_atm_1 f_avg_pxx_atm_1[*]
dump        dump_1 all custom 4000 ${out_dir}traj.${Nevery_1}_${Nrepeat_1}_${Nfreq}.xyz mol type x y z f_avg_ke_atm_1 f_avg_pe_atm_1 f_avg_pxx_atm_1[*]
dump        dump_1 all custom 4000 /shares_bgfs/dssimmons_data/harshad/deform/np7/150phr/filler_repulsive/replicate_4/work_bgfs--h--harshad--simulation_9--np7--5000chain--150phr--9_stretching--filler_repulsive--replicate_4--traj.${Nevery_1}_${Nrepeat_1}_${Nfreq}.xyz mol type x y z f_avg_ke_atm_1 f_avg_pe_atm_1 f_avg_pxx_atm_1[*]
dump        dump_1 all custom 4000 /shares_bgfs/dssimmons_data/harshad/deform/np7/150phr/filler_repulsive/replicate_4/work_bgfs--h--harshad--simulation_9--np7--5000chain--150phr--9_stretching--filler_repulsive--replicate_4--traj.1_${Nrepeat_1}_${Nfreq}.xyz mol type x y z f_avg_ke_atm_1 f_avg_pe_atm_1 f_avg_pxx_atm_1[*]
dump        dump_1 all custom 4000 /shares_bgfs/dssimmons_data/harshad/deform/np7/150phr/filler_repulsive/replicate_4/work_bgfs--h--harshad--simulation_9--np7--5000chain--150phr--9_stretching--filler_repulsive--replicate_4--traj.1_1_${Nfreq}.xyz mol type x y z f_avg_ke_atm_1 f_avg_pe_atm_1 f_avg_pxx_atm_1[*]
dump        dump_1 all custom 4000 /shares_bgfs/dssimmons_data/harshad/deform/np7/150phr/filler_repulsive/replicate_4/work_bgfs--h--harshad--simulation_9--np7--5000chain--150phr--9_stretching--filler_repulsive--replicate_4--traj.1_1_4000.xyz mol type x y z f_avg_ke_atm_1 f_avg_pe_atm_1 f_avg_pxx_atm_1[*]
dump_modify dump_1 append yes sort id

# COMPUTE a separate pe and ke for each group, AVG & SAVE
compute   pe_polymer    polymer reduce  sum c_pe_atm
compute   pe_filler     filler  reduce  sum c_pe_atm
compute   ebond_polymer polymer reduce  sum c_ebond_atm
compute   ebond_filler  filler  reduce  sum c_ebond_atm
compute   ke_polymer    polymer reduce  sum c_ke_atm
compute   ke_filler     filler  reduce  sum c_ke_atm
compute   pxx_polymer   polymer reduce  sum c_p_atm[1] c_p_atm[2] c_p_atm[3]
compute   pxx_filler    filler  reduce  sum c_p_atm[1] c_p_atm[2] c_p_atm[3]
compute   pxy_polymer   polymer reduce  sum c_p_atm[4] c_p_atm[5] c_p_atm[6]
compute   pxy_filler    filler  reduce  sum c_p_atm[4] c_p_atm[5] c_p_atm[6]
#compute   pxx_all       all     reduce  sum c_p_atm
fix 		  avgEnergy     all     ave/time ${Nevery_1} ${Nrepeat_2} ${Nfreq} c_pe_polymer c_ke_polymer c_ebond_polymer c_pe_filler c_ke_filler c_ebond_filler c_pxy_polymer[1] c_pxy_polymer[2] c_pxy_polymer[3] c_pxy_filler[1] c_pxy_filler[2] c_pxy_filler[3]   file energy.avg.csv
fix 		  avgEnergy     all     ave/time 1 ${Nrepeat_2} ${Nfreq} c_pe_polymer c_ke_polymer c_ebond_polymer c_pe_filler c_ke_filler c_ebond_filler c_pxy_polymer[1] c_pxy_polymer[2] c_pxy_polymer[3] c_pxy_filler[1] c_pxy_filler[2] c_pxy_filler[3]   file energy.avg.csv
fix 		  avgEnergy     all     ave/time 1 100 ${Nfreq} c_pe_polymer c_ke_polymer c_ebond_polymer c_pe_filler c_ke_filler c_ebond_filler c_pxy_polymer[1] c_pxy_polymer[2] c_pxy_polymer[3] c_pxy_filler[1] c_pxy_filler[2] c_pxy_filler[3]   file energy.avg.csv
fix 		  avgEnergy     all     ave/time 1 100 4000 c_pe_polymer c_ke_polymer c_ebond_polymer c_pe_filler c_ke_filler c_ebond_filler c_pxy_polymer[1] c_pxy_polymer[2] c_pxy_polymer[3] c_pxy_filler[1] c_pxy_filler[2] c_pxy_filler[3]   file energy.avg.csv
fix       avgPxx_all    all     ave/time ${Nevery_1} ${Nfreq} ${Nfreq}     c_pxx_polymer[1] c_pxx_polymer[2] c_pxx_polymer[3] c_pxx_filler[1] c_pxx_filler[2] c_pxx_filler[3]                                                                                    file pxx.all.avg.csv
fix       avgPxx_all    all     ave/time 1 ${Nfreq} ${Nfreq}     c_pxx_polymer[1] c_pxx_polymer[2] c_pxx_polymer[3] c_pxx_filler[1] c_pxx_filler[2] c_pxx_filler[3]                                                                                    file pxx.all.avg.csv
fix       avgPxx_all    all     ave/time 1 4000 ${Nfreq}     c_pxx_polymer[1] c_pxx_polymer[2] c_pxx_polymer[3] c_pxx_filler[1] c_pxx_filler[2] c_pxx_filler[3]                                                                                    file pxx.all.avg.csv
fix       avgPxx_all    all     ave/time 1 4000 4000     c_pxx_polymer[1] c_pxx_polymer[2] c_pxx_polymer[3] c_pxx_filler[1] c_pxx_filler[2] c_pxx_filler[3]                                                                                    file pxx.all.avg.csv

# TIME-AVG Ly
variable Ly equal ly
fix       avgLy         all     ave/time ${Nevery_1} ${Nfreq} ${Nfreq}     v_Ly  file Ly.avg.csv
fix       avgLy         all     ave/time 1 ${Nfreq} ${Nfreq}     v_Ly  file Ly.avg.csv
fix       avgLy         all     ave/time 1 4000 ${Nfreq}     v_Ly  file Ly.avg.csv
fix       avgLy         all     ave/time 1 4000 4000     v_Ly  file Ly.avg.csv

# SIMULATION FIXES
fix  npt        all npt temp ${Temp} ${Temp} 2.0 y 0 0 5 z 0 0 5 couple yz
fix  npt        all npt temp 1 ${Temp} 2.0 y 0 0 5 z 0 0 5 couple yz
fix  npt        all npt temp 1 1 2.0 y 0 0 5 z 0 0 5 couple yz
fix  mom        all momentum 10000 linear 1 1 1
fix  deform     all deform 1 x erate ${gamma_rate} remap x units box
fix  deform     all deform 1 x erate 5e-05 remap x units box

# THERMO
variable  thermo_frq equal ${Nfreq}
variable  thermo_frq equal 4000
thermo    ${thermo_frq}
thermo    4000
thermo_style  custom step time temp press pe ke ebond etotal epair ecouple lx ly lz pxx pyy pzz pxy pxz pyz cpu cpuremain

# deform
run ${Run}
run 40000000

CITE-CITE-CITE-CITE-CITE-CITE-CITE-CITE-CITE-CITE-CITE-CITE-CITE

Your simulation uses code contributions which should be cited:

- GPU package (short-range, long-range and three-body potentials): doi:10.1016/j.cpc.2010.12.021, doi:10.1016/j.cpc.2011.10.012, doi:10.1016/j.cpc.2013.08.002, doi:10.1016/j.commatsci.2014.10.068, doi:10.1016/j.cpc.2016.10.020, doi:10.3233/APC200086

@Article{Brown11,
 author = {W. M. Brown and P. Wang and S. J. Plimpton and A. N. Tharrington},
 title = {Implementing Molecular Dynamics on Hybrid High Performance Computers---Short Range Forces},
 journal = {Comput.\ Phys.\ Commun.},
 year =    2011,
 volume =  182,
 pages =   {898--911},
 doi =     {10.1016/j.cpc.2010.12.021}
}

@Article{Brown12,
 author = {W. M. Brown and A. Kohlmeyer and S. J. Plimpton and A. N. Tharrington},
 title = {Implementing Molecular Dynamics on Hybrid High Performance Computers - Particle-Particle Particle-Mesh},
 journal = {Comput.\ Phys.\ Commun.},
 year =    2012,
 volume =  183,
 doi =     {10.1016/j.cpc.2011.10.012},
 pages =   {449--459}
}

@Article{Brown13,
 author = {W. M. Brown and Y. Masako},
 title = {Implementing Molecular Dynamics on Hybrid High Performance Computers---Three-Body Potentials},
 journal = {Comput.\ Phys.\ Commun.},
 year =    2013,
 volume =  184,
 pages =   {2785--2793},
 doi =     {10.1016/j.cpc.2013.08.002},
}

@Article{Trung15,
 author = {T. D. Nguyen and S. J. Plimpton},
 title = {Accelerating Dissipative Particle Dynamics Simulations for Soft Matter Systems},
 journal = {Comput.\ Mater.\ Sci.},
 year =    2015,
 doi =     {10.1016/j.commatsci.2014.10.068},
 volume =  100,
 pages =   {173--180}
}

@Article{Trung17,
 author = {T. D. Nguyen},
 title = {{GPU}-Accelerated {T}ersoff Potentials for Massively Parallel
    Molecular Dynamics Simulations},
 journal = {Comput.\ Phys.\ Commun.},
 year =    2017,
 doi =     {10.1016/j.cpc.2016.10.020},
 volume =  212,
 pages =   {113--122}
}

@inproceedings{Nikolskiy19,
 author = {V. Nikolskiy and V. Stegailov},
 title = {{GPU} Acceleration of Four-Site Water Models in {LAMMPS}},
 booktitle = {Proceedings of the International Conference on Parallel
    Computing (ParCo 2019), Prague, Czech Republic},
 doi =     {10.3233/APC200086},
 year =    2019
}

- neighbor multi command: doi:10.1016/j.cpc.2008.03.005, doi:10.1007/s40571-020-00361-2

@Article{Intveld08,
 author =  {in 't Veld, P. J. and S. J.~Plimpton and G. S. Grest},
 title =   {Accurate and Efficient Methods for Modeling Colloidal
            Mixtures in an Explicit Solvent using Molecular Dynamics},
 journal = {Comput.\ Phys.\ Commut.},
 year =    2008,
 volume =  179,
 pages =   {320--329}
}

@article{Shire2020,
 author = {Shire, Tom and Hanley, Kevin J. and Stratford, Kevin},
 title = {{DEM} Simulations of Polydisperse Media: Efficient Contact
          Detection Applied to Investigate the Quasi-Static Limit},
 journal = {Computational Particle Mechanics},
 year = {2020}
}

CITE-CITE-CITE-CITE-CITE-CITE-CITE-CITE-CITE-CITE-CITE-CITE-CITE

Generated 0 of 36 mixed pair_coeff terms from geometric mixing rule
WARNING: Communication cutoff adjusted to 4 (src/comm.cpp:732)
WARNING: Inconsistent image flags (src/domain.cpp:819)
Per MPI rank memory allocation (min/avg/max) = 55.67 | 55.73 | 55.91 Mbytes
   Step          Time           Temp          Press          PotEng         KinEng         E_bond         TotEng         E_pair        Ecouple           Lx             Ly             Lz            Pxx            Pyy            Pzz            Pxy            Pxz            Pyz            CPU          CPULeft    
         0   0              1.0000618      0.15192376     7.5870498      1.5000861      10.39378       9.0871359     -2.8067299      0              59.179763      59.179763      59.179763      0.11359556     0.23165272     0.11052301     0.041416843   -0.071132146    0.069920542    0              0            
      4000   4              1.0004512     -0.085179185    7.5890271      1.5006701      10.39339       9.0896973     -2.8043633     -532.35015      59.191599      59.184116      59.184116     -0.11064428    -0.086018055   -0.058875224   -0.027329107   -0.046429422   -0.026307977    29.396524      293935.86    
      8000   8              1.0012251      0.012464767    7.5907764      1.5018311      10.396017      9.0926075     -2.8052402     -1144.0284      59.203435      59.178534      59.178534     -0.070439068    0.0083720137   0.099461356    0.014010875    0.049447855    0.087238418    59.112044      295501.11    
     12000   12             1.0006134     -0.044246509    7.5844154      1.5009135      10.391814      9.0853289     -2.8073987      544.93813      59.21527       59.164731      59.164731     -0.14600278     0.073088062   -0.059824805    0.09742957    -0.02593557     0.058184106    89.181102      297181.16    
     16000   16             0.99794547    -0.00017854311  7.5919959      1.4969116      10.396081      9.0889075     -2.8040855     -215.14343      59.227106      59.178983      59.178983     -0.056215726    0.00088574318  0.054794353   -0.045692571   -0.10383156    -0.051486625    119.03114      297458.83    
     20000   20             1.0034317     -0.023394012    7.5901203      1.5051409      10.391209      9.0952612     -2.8010889     -1605.3468      59.238942      59.180102      59.180102     -0.046597139   -0.068420288    0.044835393   -0.047264197   -0.14325183    -0.020678571    148.84299      297537.14    
     24000   24             1.0011965      0.0045954799   7.585619       1.5017881      10.390954      9.0874071     -2.8053346      215.91761      59.250778      59.150551      59.150551      0.029413632    0.047877203   -0.063504395    0.051325549   -0.1264669     -0.0012290633   178.28193      296958.28    
     28000   28             1.000251      -0.051076623    7.588836       1.5003699      10.392626      9.089206      -2.8037899     -142.27209      59.262614      59.151089      59.151089      0.087403939   -0.14266254    -0.097971268   -0.039564303   -0.026611746   -0.042789839    208.06187      297023.19    
     32000   32             1.0037749      0.088744474    7.5932226      1.5056556      10.395198      9.0988782     -2.801975      -2281.0188      59.27445       59.163788      59.163788     -0.0028256384   0.15237633     0.11668273     0.036576717   -0.03760493     0.034128839    237.80401      297017.21    
     36000   36             1.0012084     -0.059438596    7.5912344      1.501806       10.392394      9.0930403     -2.8011595     -916.16737      59.286286      59.169301      59.169301     -0.04349076    -0.094899365   -0.039925663    0.06934188    -0.0089431651  -0.066886818    267.15813      296575.21    
     40000   40             0.99822329    -0.016968659    7.5900958      1.4973283      10.391764      9.0874241     -2.8016687      398.87633      59.298122      59.154914      59.154914     -0.12112975    -0.013377346    0.083601118    0.078303874   -0.12001911     0.029630974    297.31698      297019.66    
     44000   44             0.99833598     0.10663638     7.5924053      1.4974973      10.395947      9.0899027     -2.8035418     -111.63468      59.309958      59.135844      59.135844      0.014267302    0.2078137      0.097828142    0.077235993   -0.10965567     0.048831543    327.28677      297206.14    
     48000   48             1.0020557     -0.034951199    7.5910059      1.5030768      10.393302      9.0940828     -2.8022962     -1009.6301      59.321794      59.145769      59.145769     -0.081506924    0.041545037   -0.06489171    -0.043846879    0.012316903    0.021112634    356.46942      296701.38    
     52000   52             0.99862185    -0.0046563152   7.5887271      1.4979261      10.391391      9.0866533     -2.8026635      716.72262      59.33363       59.122769      59.122769     -0.077079619   -0.015981144    0.079091817   -0.10030033    -0.076353879    0.079618918    385.97472      296517.66    
     56000   56             1.000105      -0.020777465    7.59071        1.5001508      10.3924        9.0908608     -2.80169       -186.52862      59.345466      59.126902      59.126902     -0.022991952   -0.069940915    0.030600471    0.097413465    0.020885186   -0.026990368    415.70147      296513.92    
     60000   60             1.0027144     -0.087320094    7.5948238      1.504065       10.396845      9.0988889     -2.8020209     -1952.0654      59.357302      59.12622       59.12622      -0.152999       0.018077883   -0.12703917     0.034376188   -0.037805161   -0.077231583    445.7157       296698.08    
     64000   64             0.99921717    -0.041715705    7.5902743      1.4988191      10.393928      9.0890934     -2.803654       306.50063      59.369138      59.111553      59.111553     -0.021746088   -0.019386058   -0.084014969    0.027891136    0.070794744   -0.054740822    475.55084      296743.72    
     68000   68             0.99917268    -0.2220249      7.5910641      1.4987524      10.394664      9.0898164     -2.8035996      191.13657      59.380974      59.121639      59.121639     -0.21494621    -0.089665818   -0.36146267     0.075423409    0.073358605   -0.021496175    504.76102      296413.49    
     72000   72             1.0024177      0.037259226    7.591505       1.50362        10.395654      9.095125      -2.8041486     -960.1326       59.39281       59.099223      59.099223     -0.031033668    0.14440607    -0.001594726    0.010542436    0.055608868   -0.011715256    534.1789       296231.88    
     76000   76             0.99982322     0.031198233    7.587563       1.4997282      10.391633      9.0872912     -2.8040702      858.37566      59.404646      59.076427      59.076427     -0.11769165     0.11468359     0.096602757   -0.032671245    0.0042283771   0.035992836    563.5916       296063.57    
     80000   80             1.0005992      0.047998268    7.5889793      1.5008922      10.393598      9.0898715     -2.8046182      323.42817      59.416482      59.079309      59.079309      0.064089779   -0.015046461    0.094951486   -0.031235292    0.041235393   -0.011631518    593.39604      296104.62    
     84000   84             1.0015363     -0.066600338    7.5935567      1.5022978      10.394804      9.0958545     -2.8012471     -979.80826      59.428318      59.076855      59.076855     -0.28148738     0.13299853    -0.051312167    0.0022876371  -0.018817164    0.025718921    622.98935      296038.61    
     88000   88             0.99761925     0.021848056    7.5903033      1.4964223      10.393623      9.0867256     -2.80332        1128.8933      59.440154      59.072357      59.072357     -0.011241808    0.06988728     0.0068986961  -0.15451648     0.032698867   -0.094531751    652.9335       296135.02    
     92000   92             1.001226      -0.015251188    7.5887972      1.5018323      10.393735      9.0906295     -2.8049377      294.88509      59.45199       59.073312      59.073312     -0.12691592     0.12570219    -0.044539836   -0.076158786    0.026824696   -0.025373334    682.46655      296042.12    
     96000   96             1.0017339     -0.094651805    7.5907412      1.5025942      10.395398      9.0933353     -2.8046567     -266.97302      59.463825      59.058339      59.058339     -0.20166436    -0.034320213   -0.047970845   -0.049095142   -0.05828409     0.03013904     711.61755      295795.7     
    100000   100            1.0004747      0.043535686    7.5852831      1.5007054      10.391202      9.0859885     -2.8059187      1438.7195      59.475661      59.047701      59.047701      0.017495234    0.023245325    0.089866498   -0.040073066   -0.07836326    -0.014874222    741.18444      295732.59    
    104000   104            0.99973634     0.021012988    7.5943242      1.4995979      10.393293      9.0939221     -2.798969      -303.97201      59.487497      59.069043      59.069043     -0.050925081    0.10939956     0.0045644822   0.04086627     0.048721784   -0.044908188    770.90015      295729.16    
    108000   108            1.0015357      0.039047728    7.5909111      1.5022969      10.391383      9.0932081     -2.8004721     -95.266025      59.499333      59.067625      59.067625     -0.070302882    0.17191186     0.015534201    0.068418847    0.1344392      0.062907395    800.38664      295639.11    
    112000   112            1.0005605     -0.015887511    7.5888348      1.5008342      10.393588      9.089669      -2.8047533      752.91274      59.511169      59.051435      59.051435     -0.039349782    0.020111468   -0.028424219   -0.053837953    0.050876183    0.01142837     830.14415      295649.91    
    116000   116            0.9980716     -0.073878781    7.5903905      1.4971008      10.392956      9.0874913     -2.8025654      1293.0098      59.523005      59.049202      59.049202      0.0051448814  -0.14519454    -0.081586689   -0.11653029    -0.018073551   -0.037196537    859.31444      295456.01    
    120000   120            1.0009932      0.068550624    7.59308        1.5014832      10.394105      9.0945632     -2.8010249     -256.16047      59.534841      59.046778      59.046778      0.045138913    0.060189031    0.10032393    -0.076172861   -0.059469233   -0.075545709    888.41099      295248.59    
    124000   124            1.0013706     -0.097511059    7.5907249      1.5020493      10.39163       9.0927742     -2.8009054      197.40015      59.546677      59.042493      59.042493     -0.19856242    -0.035857522   -0.058113233   -0.00231779    -0.057776223    0.022185647    917.87571      295171.06    
    128000   128            0.99739206    -0.12419824     7.5919357      1.4960815      10.39456       9.0880172     -2.802624       1321.5401      59.558513      59.039651      59.039651     -0.22927157    -0.0055290258  -0.13779413     0.07794294     0.080948977    0.073524562    947.20863      295055.49    
    132000   132            0.99874647    -0.20687191     7.5945319      1.4981131      10.395994      9.0926449     -2.8014619      325.75151      59.570349      59.023734      59.023734     -0.1415274     -0.20841696    -0.27067138     0.11952709    -0.014901979   -0.033653265    976.2514       294857.51    
    136000   136            1.0027365     -0.12710836     7.5884154      1.5040981      10.390878      9.0925135     -2.8024627      402.62303      59.582185      59.011819      59.011819     -0.18263824    -0.053837307   -0.14484953     0.080107531    0.088055223    0.056833045    1005.7116      294791.81    
    140000   140            0.99807013    -0.085889987    7.5983224      1.4970986      10.394687      9.095421      -2.7963644     -203.75696      59.594021      59.032664      59.032664     -0.10079745     0.097192597   -0.25406511     0.076661536   -0.035607557    0.092920652    1035.0907      294705.11    
    144000   144            1.000467      -0.0027529882   7.5977627      1.5006938      10.397106      9.0984565     -2.7993437     -840.54135      59.605857      59.015107      59.015107     -0.022261886   -0.029119647    0.043122568    0.13391586    -0.047475567   -0.052035204    1064.4666      294620.71    
    148000   148            0.99793635    -0.032970506    7.5962291      1.4968979      10.396658      9.093127      -2.8004285      413.41236      59.617693      59.004932      59.004932     -0.072629596   -0.10012728     0.073845353   -0.037747374    0.077955817    0.096403349    1093.8624      294544.62    
    152000   152            0.99987168     0.041642354    7.5919687      1.4998009      10.391669      9.0917695     -2.7997006      767.58264      59.629529      58.998187      58.998187     -0.072379082    0.064061496    0.13324465     0.028551865    0.077362002    0.037217011    1123.1612      294445.57    
    156000   156            1.0000832     -0.07484652     7.5941448      1.5001182      10.393555      9.094263      -2.7994103      252.7598       59.641365      59.010715      59.010715     -0.19129493     0.0016422637  -0.034886894   -0.00012836727 -0.028727709   -0.054244114    1152.7411      294421.89    
    160000   160            0.99973246    -0.086733315    7.5989194      1.4995921      10.397098      9.0985115     -2.7981784     -658.07905      59.653201      59.001363      59.001363     -0.24738441    -0.083600903    0.070785369   -0.024269866   -0.0015562623   0.10644494     1181.775       294261.98    
    164000   164            0.99951178     0.0061255611   7.5909182      1.499261       10.3906        9.0901792     -2.7996813      1272.5583      59.665037      58.989766      58.989766      0.00039252876  0.021876067   -0.0038919127   0.02575985     0.098979407    0.0062791526   1210.948       294142.23    
    168000   168            1.0001944      0.020141631    7.5947169      1.500285       10.394087      9.095002      -2.7993697      234.3809       59.676873      58.979001      58.979001      0.039873005   -0.024379892    0.044931781    0.046737269   -0.097613477   -0.020184226    1240.235       294053.82    
    172000   172            1.0025173      0.027584584    7.591345       1.5037692      10.39285       9.0951142     -2.8015046      256.42052      59.688709      58.974195      58.974195      0.019864214    0.047031914    0.015857626    0.025961895    0.064537446    0.0072008025   1269.2158      293897.24    
    176000   176            0.99888188    -0.017794404    7.5905905      1.4983162      10.390598      9.0889067     -2.8000071      1708.3001      59.700545      58.980197      58.980197     -0.18319138     0.11442551     0.015382659   -0.046422453    0.04884932     0.0039726874   1298.0631      293716.28    
    180000   180            1.0037788     -0.036443591    7.5909468      1.5056616      10.394165      9.0966083     -2.8032179      18.788921      59.71238       58.954996      58.954996     -0.12823762     0.032111843   -0.013204994   -0.062530371   -0.014020351    0.0079031341   1326.7822      293513.71    
    184000   184            1.0020075      0.10205309     7.5917235      1.5030047      10.393898      9.0947282     -2.8021749      493.83087      59.724216      58.949616      58.949616      0.20852173    -0.03347787     0.13111539    -0.011408516   -0.056996816    0.052855933    1355.5938      293338.7     
    188000   188            0.99976601    -0.1268181      7.5863646      1.4996424      10.391704      9.0860069     -2.8053397      2513.7496      59.736052      58.944798      58.944798     -0.19843634    -0.19758293     0.015564968    0.034602486   -0.11849712     0.024299084    1384.5609      293202.86    
    192000   192            0.99604813    -0.13445185     7.5952828      1.4940656      10.395116      9.0893483     -2.7998334      1809.4999      59.747888      58.957282      58.957282     -0.29481892    -0.06975963    -0.038777      -0.12668743    -0.055002753   -0.022355438    1413.4338      293051.93    
    196000   196            1.0015551     -0.13469586     7.5935408      1.502326       10.393001      9.0958668     -2.7994598      387.66496      59.759724      58.948864      58.948864     -0.21384432    -0.07444568    -0.11579758     0.0032646958  -0.081658991    0.038358741    1442.2924      292903.1     
    200000   200            0.99678233     0.050445478    7.5977614      1.4951669      10.395827      9.0929283     -2.7980658      1102.075       59.77156       58.937503      58.937503     -0.053924786    0.067445064    0.13781616    -0.035799036    0.002037812    0.028755565    1471.2399      292776.75    
    204000   204            0.9972472     -0.16292692     7.5924063      1.4958642      10.39395       9.0882705     -2.8015434      2203.9733      59.783396      58.931014      58.931014     -0.18633624    -0.18016908    -0.12227545     0.05962333    -0.052919541    0.06829503     1500.1929      292655.28    
    208000   208            0.99979283    -0.068705055    7.5939234      1.4996826      10.396548      9.093606      -2.8026248      1049.4418      59.795232      58.910905      58.910905     -0.28519307     0.047044479    0.032033425   -0.12083401     0.054974822   -0.025809467    1529.3916      292584.38    
    212000   212            0.99991029    -0.098420602    7.5914358      1.4998588      10.396461      9.0912946     -2.8050248      1621.7255      59.807068      58.90589       58.90589      -0.16660589    -0.046152099   -0.082503815    0.052557459   -0.0014151441   0.031588635    1558.1732      292436.76    
    216000   216            0.99883101    -0.098765759    7.5885956      1.4982399      10.391092      9.0868354     -2.802496       2679.398       59.818904      58.90813       58.90813      -0.1310111     -0.074341117   -0.090945061   -0.011037051    0.014949967    0.068969679    1587.1973      292338.22    
    220000   220            0.99985163    -0.015886377    7.5965427      1.4997708      10.396994      9.0963135     -2.8004518      588.54482      59.83074       58.91316       58.91316      -0.10718538     0.08994864    -0.030422396    0.042125267    0.036985194    0.017221013    1615.9511      292193.34    
    224000   224            0.99948426    -0.17963694     7.5919189      1.4992198      10.393272      9.0911387     -2.8013532      1808.2696      59.842576      58.90112       58.90112      -0.27362207    -0.15483049    -0.11045826     0.010171881   -0.039851043    0.00010199058  1644.7766      292065.33    
    228000   228            0.99822382     0.027580153    7.5914358      1.4973291      10.393512      9.0887649     -2.8020761      2395.545       59.854412      58.895719      58.895719     -0.072557846    0.10473025     0.050568054   -0.028038229    0.04235043    -0.043629366    1672.9543      291827.81    
    232000   232            1.0028401     -0.058250547    7.5950311      1.5042535      10.395877      9.0992847     -2.8008462      67.997337      59.866248      58.881218      58.881218     -0.15594315     0.041065606   -0.059874101   -0.11003038    -0.024100355   -0.045708973    1701.2648      291620.25    
    236000   236            1.0017045     -0.062220825    7.5908783      1.50255        10.393739      9.0934283     -2.8028606      1441.5837      59.878084      58.879071      58.879071     -0.12890936     0.038468948   -0.096222064   -0.012486688    0.084498894    0.12970925     1730.4197      291561.06    
    240000   240            0.99722887    -0.11749198     7.5940615      1.4958367      10.395006      9.0898981     -2.8009449      2290.8738      59.88992       58.875861      58.875861     -0.15598823    -0.041035723   -0.155452       0.088494126   -0.01966355     0.045986821    1759.0854      291421.81    
    244000   244            1.001104      -0.11795765     7.5950165      1.5016494      10.394367      9.0966659     -2.7993502      810.14814      59.901756      58.876893      58.876893     -0.21510916    -0.047399339   -0.091364462    0.020664134   -0.0077493035   0.062637407    1787.1232      291183.89    
    248000   248            1.0003385      0.064861748    7.5989463      1.5005011      10.398513      9.0994474     -2.7995664      234.12899      59.913592      58.878342      58.878342      0.008392865   -0.012387934    0.19858031    -0.038929883   -0.068659694   -0.017053786    1815.6854      291036.79    
    252000   252            0.99830604    -0.045062706    7.5928523      1.4974524      10.392212      9.0903047     -2.7993602      2347.1144      59.925428      58.872559      58.872559     -0.23369957     0.11240816    -0.013896711   -0.014771895   -0.049733003    0.063173441    1844.1031      290870.68    
    256000   256            1.0008143     -0.036275077    7.5953152      1.5012149      10.394557      9.09653       -2.7992418      993.77314      59.937264      58.864979      58.864979     -0.053285798   -0.029439799   -0.026099634   -0.066554251    0.089753133   -0.11373791     1872.407       290691.18    
    260000   260            1.0010899     -0.16113476     7.5912061      1.5016283      10.390687      9.0928344     -2.7994811      1877.0739      59.9491        58.859601      58.859601     -0.33751054    -0.15584014     0.0099464103  -0.13567566     0.11404217    -0.07549473     1900.3996      290468.77    
    264000   264            0.99654445    -0.0046026539   7.5956411      1.4948101      10.39517       9.0904512     -2.799529       2468.9139      59.960935      58.844949      58.844949     -0.089935112    0.064141315    0.011985835   -0.050371466   -0.047333078    0.039794441    1928.8062      290314.56    
    268000   268            1.0008718     -0.099623513    7.596753       1.5013011      10.393381      9.0980541     -2.7966281      800.04234      59.972771      58.854574      58.854574     -0.20435178    -0.13189349     0.037374729   -0.021501296    0.038621702   -0.028476118    1957.3355      290182.29    
    272000   272            1.0000141     -0.16253856     7.5951127      1.5000146      10.392128      9.0951272     -2.7970153      1510.5039      59.984607      58.868529      58.868529     -0.34041109    -0.025805785   -0.12139881    -0.038510496   -0.057548352   -0.072819575    1985.6245      290017.98    
    276000   276            0.99734234    -0.012092808    7.592909       1.4960069      10.393727      9.0889159     -2.8008178      2965.754       59.996443      58.823089      58.823089     -0.21932482     0.060471477    0.12257491    -0.035970128    0.038190747   -0.023559658    2014.1009      289884.58    
    280000   280            0.99921629    -0.022495305    7.599701       1.4988178      10.396414      9.0985188     -2.7967133      847.35347      60.008279      58.828584      58.828584     -0.15261352     0.012326428    0.072801178    0.0037252994   0.0023197725  -0.040857648    2042.2722      289710.9     
    284000   284            0.99811536    -0.017624043    7.6010187      1.4971664      10.396287      9.0981852     -2.7952681      975.05597      60.020115      58.834888      58.834888     -0.065067912    0.024514147   -0.012318364   -0.054575341   -0.012499493   -0.026941432    2070.7338      289581.91    
    288000   288            0.99586096    -0.073140695    7.5956763      1.4937848      10.391912      9.0894611     -2.7962355      2993.1059      60.031951      58.835667      58.835667     -0.20546103    -0.023776517    0.0098154602   0.032006623    0.035080607   -0.021341516    2098.8652      289410.19    
    292000   292            1.0027076     -0.062777899    7.5941629      1.5040547      10.390293      9.0982176     -2.7961299      1067.6106      60.043787      58.821158      58.821158     -0.27842438    -0.014289366    0.10438005    -0.020472215   -0.030371849   -0.011756377    2127.2142      289271.99    
    296000   296            1.001555       0.023086119    7.5949327      1.5023258      10.390596      9.0972585     -2.795663       1334.8358      60.055623      58.815684      58.815684      0.017489342   -0.070148897    0.12191791    -0.045583306   -0.0011323072   0.033001037    2155.0051      289061.91    
    300000   300            0.99804037    -0.010048557    7.5993995      1.4970539      10.394592      9.0964534     -2.7951921      1567.973       60.067459      58.820972      58.820972     -0.12274795     0.0073291644   0.085273115   -0.035556711   -0.058731193    0.064821958    2183.3401      288928.68    
    304000   304            1.0003198     -0.22935362     7.6008801      1.500473       10.394954      9.1013532     -2.7940738      512.90175      60.079295      58.81791       58.81791      -0.16379318    -0.26113602    -0.26313164    -0.050842605   -0.10133461     0.071017838    2211.4641      288770.66    
    308000   308            0.99825909    -0.034398646    7.5966584      1.497382       10.393952      9.0940404     -2.7972935      2215.5514      60.091131      58.799182      58.799182     -0.3170081      0.091054533    0.12275763     0.072755632   -0.037306523    0.00078681945  2239.7965      288642.86    
    312000   312            0.99949382    -0.094137242    7.5978356      1.4992341      10.393364      9.0970696     -2.7955288      1582.961       60.102967      58.804633      58.804633     -0.22219244    -0.041127761   -0.019091528    0.014240059    0.0014235874  -0.03712402     2267.9682      288497.18    
    316000   316            0.99965692    -0.093580033    7.6015522      1.4994787      10.396954      9.1010309     -2.7954019      738.88958      60.114803      58.792964      58.792964     -0.31068705    -0.0033329706   0.033279921   -0.031905305   -0.16930536    -0.078396057    2296.4264      288390.46    
    320000   320            1.0009771     -0.13040142     7.5928071      1.5014591      10.389533      9.0942662     -2.7967257      2315.6036      60.126639      58.781514      58.781514     -0.12635133    -0.12329741    -0.14155552     0.040240927   -0.020671244   -0.034128302    2324.5013      288238.16    
    324000   324            0.99969867    -0.0036937943   7.597892       1.4995414      10.394442      9.0974334     -2.7965503      1653.0439      60.138475      58.777137      58.777137     -0.063149128    0.051329054    0.00073869091 -0.13483925    -0.049943263    0.10512093     2352.4125      288068.89    
    328000   328            0.99948131    -0.063587701    7.6011445      1.4992153      10.396469      9.1003598     -2.7953243      1044.1696      60.150311      58.77487       58.77487      -0.093113288   -0.097878045    0.00022822959  0.12991034     0.0079304946   0.04602506     2380.5859      287934.76    
    332000   332            1.0001794     -0.14369648     7.5906188      1.5002625      10.389631      9.0908813     -2.7990122      3232.8643      60.162147      58.762619      58.762619     -0.24252109    -0.091809292   -0.096759048   -0.020059996    0.023011516   -0.17940175     2408.5452      287777.62    
    336000   336            0.99929835    -0.083156913    7.5953418      1.4989409      10.392295      9.0942827     -2.7969532      2516.1748      60.173983      58.760204      58.760204     -0.1652184     -0.076421018   -0.0078313235  -0.022242201    0.071314917   -0.041254605    2437.0292      287685.49    
    340000   340            1.0034025      0.0066730473   7.5960648      1.5050971      10.394175      9.1011619     -2.7981103      1013.7477      60.185819      58.752753      58.752753      0.027317779    0.007993648   -0.015292285    0.030381747    0.012359391   -0.038018753    2465.1734      287555.23    
    344000   344            0.99985775    -0.083674099    7.5923794      1.49978        10.390619      9.0921593     -2.7982393      3098.664       60.197655      58.744797      58.744797     -0.27215395     0.029023843   -0.0078921903   0.0033414171   0.052103021   -0.05850883     2493.2282      287417.03    
    348000   348            0.9973616      0.051245706    7.6007251      1.4960358      10.395959      9.0967608     -2.7952344      2111.3436      60.20949       58.735493      58.735493     -0.051930608    0.013029961    0.19263777     0.049346422   -0.047895031   -0.053722458    2520.8896      287236.53    
    352000   352            1.0012156     -0.090852138    7.5969255      1.5018167      10.39359       9.0987422     -2.7966645      1712.0188      60.221326      58.742305      58.742305     -0.074466564   -0.088414271   -0.10967558    -0.014530165    0.020432911    0.059332442    2549.0887      287120.08    
    356000   356            0.99750719    -0.10340208     7.5921763      1.4962542      10.389985      9.0884305     -2.7978086      4092.9476      60.233162      58.721297      58.721297     -0.2443234      0.015324658   -0.081207502   -0.026539195    0.057488715   -0.071438125    2576.8236      286953.92    
    360000   360            0.9972019     -0.067587978    7.5986236      1.4957962      10.396533      9.0944198     -2.7979096      2792.9824      60.244998      58.719703      58.719703     -0.13007953    -0.079292908    0.0066084977  -0.032683958    0.081244618   -0.011082679    2605.0106      286840.61    
    364000   364            0.99858462    -0.11516032     7.6012441      1.4978703      10.398832      9.0991144     -2.7975882      1783.3962      60.256834      58.727259      58.727259     -0.34583107     0.092637574   -0.092287463   -0.041852666   -0.084412621    0.058340639    2632.8333      286689.51    
    368000   368            1.0016824      0.14085238     7.6023971      1.5025169      10.397322      9.104914      -2.7949253      524.38964      60.26867       58.721666      58.721666     -0.049627592    0.33989787     0.13228685     0.12591809     0.019686237    0.017397914    2660.9311      286570.72    
    372000   372            1.0018335     -0.05610978     7.5938447      1.5027436      10.395286      9.0965883     -2.8014416      2458.5282      60.280506      58.693753      58.693753     -0.32775029     0.045971447    0.1134495      0.098585956   -0.091288645    0.014483347    2688.8938      286439.47    
    376000   376            0.99931094    -0.018972664    7.5957672      1.4989598      10.392646      9.094727      -2.796879       2929.1749      60.292342      58.696861      58.696861     -0.22383762     0.15956292     0.0073567047  -0.096217139   -0.028358171    0.066615607    2717.14        286340.3     
    380000   380            0.99988767    -0.086049338    7.6032621      1.4998249      10.398766      9.1030869     -2.7955038      1094.513       60.304178      58.70491       58.70491      -0.18464677    -0.054912845   -0.018588399    0.10187512     0.0022029188  -0.038346812    2745.1085      286213.68    
    384000   384            0.99959626    -0.085680797    7.6016652      1.4993878      10.397576      9.1010529     -2.7959108      1604.8611      60.316014      58.69442       58.69442      -0.19081931     0.014941287   -0.081164363   -0.011915875    0.019877829   -0.089198826    2773.3597      286118.28    
    388000   388            1.0001145      0.0027029403   7.5954953      1.5001651      10.393771      9.0956604     -2.7982754      2871.4427      60.32785       58.668052      58.668052     -0.10397235     0.17851319    -0.066432014    0.01839816    -0.0099080355   0.0098496496   2801.5425      286017.27    
    392000   392            0.99690717    -0.079212638    7.5892766      1.4953541      10.389662      9.0846307     -2.8003851      5413.1377      60.339686      58.673428      58.673428     -0.26152274    -0.064744916    0.088629744    0.018316278   -0.044746066    0.015260094    2829.4897      285893.95    
    396000   396            0.99653348     0.027729288    7.598306       1.4947936      10.397383      9.0930996     -2.7990769      3554.0155      60.351522      58.658527      58.658527     -0.32864017     0.037703322    0.37412472    -0.10555465    -0.024163394    0.070020475    2857.6085      285789.72    
    400000   400            1.0034557     -0.027494807    7.5949738      1.505177       10.396001      9.1001507     -2.8010271      2011.1549      60.363358      58.65527       58.65527      -0.13535342    -0.015999207    0.068868208    0.080267737   -0.056512313    0.072128061    2884.8822      285603.34    
    404000   404            0.99629451    -0.073521281    7.598169       1.4944351      10.395765      9.0926041     -2.7975965      3767.1681      60.375194      58.655157      58.655157     -0.16088037    -0.0073130432  -0.052370426    0.0049931424  -0.026408577   -0.038116004    2913.105       285513.13    
    408000   408            1.0010816     -0.04599425     7.5957852      1.5016157      10.396483      9.097401      -2.8006982      2734.7885      60.38703       58.64224       58.64224      -0.24339152     0.072133972    0.033274796   -0.052946498    0.01180979     0.046278888    2941.0923      285401.29    
    412000   412            1.0016624     -0.14486961     7.5967138      1.502487       10.395028      9.0992008     -2.7983143      2378.374       60.398866      58.639201      58.639201     -0.25402153    -0.033623115   -0.14696419     0.010039358   -0.0028786287  -0.063726556    2969.2439      285306.86    
    416000   416            0.99805705     0.031417253    7.5977685      1.497079       10.395311      9.0948474     -2.7975426      3414.8283      60.410702      58.646544      58.646544     -0.20159526     0.2231668      0.072680215    0.040774023   -0.04762229     0.012974243    2996.8467      285161.49    
    420000   420            1.0037286     -0.043493052    7.5993091      1.5055862      10.39697       9.1048953     -2.7976605      1195.6383      60.422538      58.638792      58.638792     -0.11691473     0.027553503   -0.041117929   -0.012528721    0.14162409    -0.03668984     3024.6846      285040.51    
    424000   424            1.0017779     -0.055913686    7.5966877      1.5026603      10.394499      9.0993479     -2.7978112      2498.4215      60.434374      58.622216      58.622216     -0.19512147    -0.035758297    0.063138703    0.066154278    0.062132231   -0.0059490115   3052.1226      284883.97    
    428000   428            1.0000428     -0.018092257    7.5963939      1.5000576      10.393501      9.0964515     -2.7971076      3204.9834      60.44621       58.63009       58.63009      -0.29872296     0.12446802     0.11997817     0.048997251    0.00333071    -0.052934572    3080.0648      284776.46    
    432000   432            1.0011129      0.084713473    7.6040907      1.5016626      10.396316      9.1057533     -2.7922249      1155.1159      60.458045      58.654103      58.654103     -0.095885375    0.27200325     0.078022549   -0.045498095    0.022643912   -0.0023782603   3108.1014      284679.06    
    436000   436            1.0041795     -0.10582007     7.5984152      1.5062626      10.393009      9.1046778     -2.7945941      1446.7748      60.469881      58.632683      58.632683     -0.16306624    -0.060554072   -0.09383991     0.007546154    0.10268014    -0.022921279    3136.2492      284593.03    
    440000   440            0.99853573    -0.20229404     7.6000673      1.497797       10.395016      9.0978643     -2.7949489      3039.0533      60.481717      58.627055      58.627055     -0.23315321    -0.19844018    -0.17528873    -0.031155513   -0.037627973   -0.0050672823   3164.0256      284474.66    
    444000   444            1.0018685      0.0013632293   7.5993363      1.5027961      10.394635      9.1021324     -2.7952991      2126.9805      60.493553      58.612919      58.612919     -0.13880698     0.107171       0.035725666    0.18031663     0.012236005    0.031822599    3191.5614      284336.49    
    448000   448            1.0020259     -0.13824857     7.6017141      1.5030322      10.395987      9.1047463     -2.7942733      1587.9096      60.505389      58.618157      58.618157     -0.36387121    -0.030842884   -0.020031611    0.035882819    0.097013409    0.023853798    3219.423       284229.06    
    452000   452            0.99924724    -0.15117949     7.5995321      1.4988642      10.393993      9.0983963     -2.7944609      3073.2982      60.517225      58.60226       58.60226      -0.28286546    -0.1551167     -0.015556324   -0.089913019    0.046251683    0.011968962    3247.1354      284109.98    
    456000   456            0.99753606    -0.060586344    7.6006268      1.4962975      10.39856       9.0969243     -2.7979335      3458.6647      60.529061      58.573475      58.573475     -0.13541241     0.0039642226  -0.050310846    0.10354152    -0.057175297   -0.043235402    3275.2117      284024.06    
    460000   460            0.9981578     -0.013140656    7.6013554      1.4972301      10.39392       9.0985855     -2.7925649      3132.3645      60.540897      58.604682      58.604682     -0.19800338     0.14453139     0.014050021   -0.058529284    0.0057916369   0.096559896    3303.1897      283930.7     
    464000   464            1.0004555     -0.11418806     7.601144       1.5006766      10.396374      9.1018205     -2.7952299      2452.8794      60.552733      58.581148      58.581148     -0.15167585    -0.14958727    -0.041301048    0.095946728    0.05275979    -0.072119633    3331.5075      283867.42    
    468000   468            1.001586       0.074662992    7.5934351      1.5023724      10.391561      9.0958075     -2.7981259      3861.518       60.564569      58.55865       58.55865      -0.016775804    0.1474799      0.093284885   -0.004604363   -0.013177304   -0.016532068    3359.0072      283735.63    
    472000   472            1.00182       -0.10873135     7.5973447      1.5027234      10.392975      9.1000681     -2.7956299      2950.2752      60.576405      58.576594      58.576594     -0.21532356    -0.00010673147 -0.11076377     0.029609563   -0.052800731   -0.102742       3387.1987      283663.54    
    476000   476            1.0013517     -0.12170534     7.6005709      1.502021       10.394539      9.1025918     -2.7939682      2432.3961      60.588241      58.570765      58.570765     -0.2654        -0.11819647     0.018480454    0.017992295   -0.16857706    -0.0023806713   3415.2191      283577.98    
    480000   480            0.99937057    -0.031387558    7.598257       1.4990492      10.394455      9.0973062     -2.7961983      3678.7099      60.600077      58.552635      58.552635     -0.085205496   -0.058352585    0.049395406    0.01353642     0.053071111    0.035949665    3443.3596      283503.27    
    484000   484            0.99812977    -0.14299288     7.6077257      1.497188       10.398084      9.1049137     -2.7903584      2011.8765      60.611913      58.576327      58.576327     -0.25432407    -0.0096861499  -0.16496841     0.13295728    -0.057942118    0.002313345    3471.5078      283429.97    
    488000   488            0.99618637    -0.13933682     7.6034333      1.4942729      10.395328      9.0977063     -2.7918945      3692.7777      60.623749      58.566219      58.566219     -0.28762418    -0.033956209   -0.096430069   -0.038589009   -0.029209259   -0.081201426    3499.4112      283337.57    
    492000   492            0.99858956    -0.001884625    7.6001129      1.4978777      10.395982      9.0979906     -2.7958695      3679.1805      60.635585      58.545642      58.545642     -0.16545482     0.024113775    0.13568717     0.10416321    -0.097863621    0.00040627675  3527.6336      283271.84    
    496000   496            0.99982587    -0.052648977    7.6026533      1.4997322      10.394732      9.1023854     -2.7920784      2737.4661      60.647421      58.547793      58.547793     -0.081346619   -0.0011803497  -0.075419964    0.039817935   -0.02487248     0.091829436    3555.4928      283177.8     
    500000   500            1.0019138     -0.075462389    7.6065131      1.502864       10.397244      9.1093771     -2.790731       1209.8249      60.659257      58.576518      58.576518     -0.13161476    -0.0166572     -0.078115203   -0.10482837    -0.004255612   -0.080942005    3583.58        283102.82    
    504000   504            0.99742752    -0.11119529     7.6042705      1.4961347      10.395081      9.1004052     -2.7908107      3288.0298      60.671093      58.560636      58.560636     -0.21147866    -0.052758856   -0.069348343    0.027995693    0.045686065   -0.054924919    3611.0267      282978.39    
    508000   508            1.0004719     -0.036920759    7.6008893      1.5007012      10.394174      9.1015905     -2.7932849      3071.931       60.682929      58.525545      58.525545     -0.096765521   -0.054229116    0.040232359   -0.027054385   -0.033476738    0.0022347807   3639.259       282916.57    
    512000   512            1.0015143     -0.030681712    7.6024542      1.5022648      10.394485      9.1047189     -2.7920309      2416.8411      60.694765      58.531333      58.531333     -0.18015681     0.054800605    0.033311065   -0.071313099    0.10472952    -0.018862108    3667.3566      282844.88    
    516000   516            0.99936955    -0.087373326    7.5992111      1.4990477      10.392735      9.0982588     -2.7935239      3928.3987      60.7066        58.531308      58.531308     -0.3155384     -0.083631741    0.13705016     0.018023974    0.04830777     0.05143883     3695.561       282782.03    
    520000   520            0.99912277    -0.14003154     7.5988776      1.4986775      10.391449      9.0975551     -2.7925717      4137.9658      60.718436      58.52897       58.52897      -0.25640877    -0.12539872    -0.03828713     0.053311745   -0.033992948    0.04145274     3723.1796      282675.25    
    524000   524            1.0006546      0.021896645    7.6051829      1.5009753      10.395755      9.1061582     -2.7905722      2246.8485      60.730272      58.523681      58.523681     -0.063941385    0.060031616    0.069599702    0.060942827    0.032802073    0.021905591    3751.252       282603.87    
    528000   528            0.99886916     0.011086067    7.601277       1.4982971      10.391597      9.0995741     -2.7903202      3785.414       60.742108      58.53142       58.53142      -0.10497362     0.079533577    0.05869824     0.015925768   -0.045347603    0.075468934    3778.7816      282492.55    
    532000   532            1.0000847     -0.11382168     7.600844       1.5001205      10.394488      9.1009645     -2.7936438      3523.5256      60.753944      58.504305      58.504305     -0.23135347    -0.054140871   -0.055970692   -0.090013205   -0.038274694   -0.072924641    3806.6224      282405.59    
    536000   536            0.99913709    -0.16672628     7.602167       1.498699       10.396283      9.100866      -2.7941157      3597.4148      60.76578       58.482196      58.482196     -0.3822759     -0.2043727      0.086469756    0.11694101    -0.040829724   -0.016689971    3834.4029      282315.07    
    540000   540            0.99804354    -0.16430202     7.6009536      1.4970587      10.392841      9.0980122     -2.7918878      4292.5312      60.777616      58.490932      58.490932     -0.2929667     -0.12384746    -0.07609191    -0.083703701   -0.037954903   -0.016945417    3862.3571      282238.17    
    544000   544            1.0009807     -0.074479557    7.6033071      1.5014645      10.395771      9.1047716     -2.7924638      2818.5397      60.789452      58.494075      58.494075     -0.22289494    -0.032672096    0.032128367   -0.0035646983   0.035808637    0.0010895397   3890.1311      282148.92    
    548000   548            0.99710095    -0.13395933     7.6041732      1.4956448      10.397371      9.099818      -2.7931974      3989.9554      60.801288      58.485309      58.485309     -0.25985173    -0.053372195   -0.088654054    0.079352971    0.0016421832  -0.035677852    3918.0922      282074.04    
    552000   552            1.0016468      0.062911353    7.5968913      1.5024636      10.391511      9.0993549     -2.7946196      4143.1595      60.813124      58.461681      58.461681     -0.073509074    0.20900019     0.05324294     0.053762751   -0.0011739173   0.011383208    3945.8885      281988.06    
    556000   556            1.0030486     -0.058244588    7.6010648      1.5045662      10.391414      9.105631      -2.7903495      2778.0889      60.82496       58.475775      58.475775     -0.31073536     0.14731033    -0.011308733   -0.027069893    0.046955302    0.024475824    3973.5683      281894.66    
    560000   560            1.0019834     -0.13352257     7.6056962      1.5029684      10.397368      9.1086645     -2.7916719      2146.4637      60.836796      58.473182      58.473182     -0.36441765    -0.094550058    0.058399991   -0.029598772    0.077749058   -0.068954546    4001.4647      281817.44    
    564000   564            0.99659483    -0.10838045     7.6046869      1.4948856      10.395691      9.0995725     -2.7910039      4251.9232      60.848632      58.466398      58.466398     -0.22956242    -0.03778469    -0.057794237    0.031555929    0.026114746   -0.026374724    4029.1428      281725.67    
    568000   568            0.99931176    -0.11584824     7.6040795      1.498961       10.396024      9.1030405     -2.7919447      3521.0619      60.860468      58.455412      58.455412     -0.13978006    -0.077939538   -0.12982514    -0.032073486    0.097931576   -0.057324487    4057.1196      281655.53    
    572000   572            1.0019126     -0.098996893    7.6066119      1.5028623      10.397122      9.1094742     -2.7905102      2118.2735      60.872304      58.457565      58.457565     -0.11506619    -0.017758353   -0.16416614    -0.08504477    -0.10696139     0.0067915009   4084.7103      281559.36    
    576000   576            0.99998403     0.034303667    7.5995826      1.4999694      10.393838      9.099552      -2.7942556      4412.0047      60.88414       58.440264      58.440264     -0.0798253      0.06287042     0.11986588    -0.023554144   -3.9535764e-05  0.027008086    4112.9974      281511.82    
    580000   580            0.99753236    -0.1291554      7.606323       1.4962919      10.398933      9.1026149     -2.7926104      3773.1829      60.895976      58.427874      58.427874     -0.43480641     0.068151862   -0.020811655    0.060544625   -0.03777029     0.051889979    4140.3822      281403.22    
    584000   584            1.0022385     -0.077818091    7.6030205      1.5033511      10.397236      9.1063716     -2.794216       2976.6872      60.907812      58.423259      58.423259     -0.3363887      0.12568769    -0.022753252    0.0028240084   0.044577883    0.048805015    4168.2853      281330.71    
    588000   588            0.99981028    -0.023040021    7.598604       1.4997088      10.393612      9.0983128     -2.7950078      4850.3125      60.919648      58.412402      58.412402     -0.14055        0.058082077    0.013347859    0.073997622    0.00027943332  0.017971751    4195.8931      281239.01    
    592000   592            1.0002077      0.078633742    7.6054399      1.500305       10.398817      9.1057449     -2.7933767      3223.752       60.931484      58.427215      58.427215      0.064365994    0.071434553    0.10010068    -0.078241766   -0.07483892     0.048764378    4223.7494      281164.72    
    596000   596            1.0044029     -0.18833746     7.5957417      1.5065977      10.39136       9.1023394     -2.7956179      4043.2223      60.94332       58.399852      58.399852     -0.39067017    -0.052998784   -0.12134342     0.010441174    0.11159614    -0.080416229    4251.7017      281097.4     
    600000   600            0.99868608    -0.048713894    7.6004442      1.4980225      10.394336      9.0984667     -2.7938917      4971.5674      60.955155      58.397609      58.397609     -0.11192668     0.12385588    -0.15807088     0.010767993    0.11200466    -0.045534952    4279.6607      281031.05    
    604000   604            1.0024851     -0.080202398    7.6026523      1.503721       10.395378      9.1063733     -2.7927253      3237.9179      60.966991      58.404558      58.404558     -0.22808271    -0.0068329522  -0.0056915297  -0.16011706     0.073359545   -0.057172288    4307.5809      280962.68    
    608000   608            0.99937753    -0.10365049     7.5995704      1.4990597      10.394826      9.09863       -2.7952558      5040.4576      60.978827      58.383385      58.383385     -0.25830384    -0.013549827   -0.039097791   -0.020929025   -0.028934861    0.15775731     4335.4634      280892.39    
    612000   612            0.99894659    -0.021421629    7.6002484      1.4984133      10.395796      9.0986616     -2.7955476      5085.7153      60.990663      58.373752      58.373752     -0.14418354     0.03738424     0.04253441     0.052594337   -0.05539641    -0.010067417    4363.4161      280827.18    
    616000   616            0.99940051    -0.19811652     7.6068782      1.4990941      10.399642      9.1059724     -2.7927641      3486.5123      61.002499      58.390195      58.390195     -0.32527726    -0.11721117    -0.15186114     0.086986091   -0.021656076   -0.060695762    4391.1187      280746.46    
    620000   620            0.9984098     -0.045893538    7.5990179      1.4976081      10.394071      9.096626      -2.7950533      5648.7952      61.014335      58.369653      58.369653     -0.15186919     0.021356156   -0.0071675781   0.023777807    0.026106255   -0.057502283    4419.2593      280694.25    
    624000   624            1.002339      -0.21114069     7.597228       1.5035018      10.391962      9.1007298     -2.7947342      4772.2133      61.026171      58.361261      58.361261     -0.35883895    -0.13445541    -0.14012771     0.022068257   -0.012168029    0.041701643    4447.156       280626.94    
    628000   628            1.0006643      0.017241786    7.6038836      1.5009898      10.394439      9.1048735     -2.7905556      3890.2847      61.038007      58.372585      58.372585     -0.093867105    0.16938887    -0.023796407   -0.0018991603   0.039909957   -0.073356955    4475.4414      280584.52    
    632000   632            0.99529883    -0.10036216     7.6022417      1.4929416      10.396316      9.0951834     -2.7940747      6131.1589      61.049843      58.360026      58.360026     -0.2702084     -0.037190013    0.0063119299  -0.0069625799  -0.078366559    0.0028669827   4503.4805      280526.93    
    636000   636            0.99739739    -0.28318833     7.6036159      1.4960895      10.394471      9.0997054     -2.7908553      5161.7043      61.061679      58.373299      58.373299     -0.39028446    -0.21916601    -0.24011451    -0.060203211    0.0053600049  -0.054376239    4531.4237      280463.78    
    640000   640            0.99994644    -0.065342968    7.6041028      1.499913       10.393713      9.1040158     -2.7896107      4239.3739      61.073515      58.364248      58.364248     -0.094815096    0.044374984   -0.14558879     0.051113454    0.037823952   -0.087156523    4563.6712      280665.78    
    644000   644            1.0011972     -0.023826775    7.5974525      1.5017891      10.391326      9.0992416     -2.7938738      5370.0478      61.085351      58.342036      58.342036     -0.16209991     0.025932847    0.064686734    0.0208518      0.031831771    0.046942978    4594.6844      280789.44    
    648000   648            0.997833      -0.10485173     7.5984496      1.4967429      10.393735      9.0951925     -2.7952851      6338.2437      61.097187      58.329963      58.329963     -0.29232776     0.024287054   -0.04651449     0.045194326    0.020589474   -0.0083786367   4622.3458      280707.64    
    652000   652            0.99915747    -0.16403584     7.6009459      1.4987296      10.394728      9.0996755     -2.7937819      5377.4039      61.109023      58.335155      58.335155     -0.31591989     0.0029856918  -0.17917331     0.015208353    0.033689606   -0.01572122     4649.6809      280606.82    
    656000   656            0.9995638     -0.19863114     7.6051262      1.4993391      10.394934      9.1044653     -2.7898078      4347.8373      61.120859      58.350621      58.350621     -0.24280703    -0.14603516    -0.20705124    -0.043989094   -0.029923892   -0.011204166    4677.5766      280540.51    
    660000   660            1.0024753     -0.1024685      7.6064758      1.5037064      10.397438      9.1101822     -2.7909624      3107.9194      61.132695      58.340304      58.340304     -0.16239705    -0.075555302   -0.069453135    0.0095850091   0.069053046   -0.027564317    4705.5674      280480.34    
    664000   664            1.0007214     -0.08661195     7.6025496      1.5010755      10.395085      9.1036251     -2.7925354      4640.6907      61.144531      58.309566      58.309566     -0.18558001     0.091703669   -0.1659595      0.016069553   -0.022145164    0.026747397    4733.2375      280401.55    
    668000   668            1.0004074     -0.081703875    7.600932       1.5006044      10.392029      9.1015364     -2.7910965      5163.6601      61.156367      58.317083      58.317083     -0.20428065    -0.047511074    0.0066800989  -0.090826745    0.036670561   -0.026335928    4760.9951      280328.53    
    672000   672            1.0043909     -0.1233205      7.603443       1.5065797      10.393504      9.1100226     -2.7900613      3300.0388      61.168203      58.327343      58.327343     -0.2307495      0.0075017665  -0.14671376     0.058138108   -0.051834777   -0.13422176     4788.5527      280244.35    
    676000   676            1.000794      -0.045649018    7.6019784      1.5011843      10.39322       9.1031627     -2.7912418      4903.9187      61.180039      58.312664      58.312664     -0.1898618      0.0053851179   0.047529629    0.0034741014  -0.055092032   -0.072730483    4816.2527      280169.12    
    680000   680            1.0003618     -0.09959299     7.6009103      1.5005361      10.389463      9.1014464     -2.7885526      5342.6842      61.191875      58.322015      58.322015     -0.23040627     0.0036609481  -0.072033652    0.067429445    0.068658229    0.013335349    4843.4004      280062.5     
    684000   684            1.0024861     -0.15695351     7.6058412      1.5037225      10.393821      9.1095637     -2.7879801      3562.2877      61.20371       58.311138      58.311138     -0.24376292    -0.017002546   -0.21009507     0.0040980803   0.037837474   -0.15670909     4871.1702      279992.58    
    688000   688            0.99760158    -0.051316751    7.6069675      1.4963957      10.397356      9.1033633     -2.7903884      5018.0202      61.215546      58.290323      58.290323     -0.16160431     0.066241099   -0.058587046   -0.058159701    0.031792145   -0.030838025    4898.8066      279915.53    
    692000   692            0.99706543    -0.10559349     7.6037852      1.4955915      10.39392       9.0993767     -2.7901347      5968.799       61.227382      58.293639      58.293639     -0.26891534    -0.035518763   -0.012346358   -0.0074898019   0.04675101    -0.022100278    4926.4492      279839.4     
    696000   696            1.0008926     -0.14565081     7.6057825      1.5013323      10.395837      9.1071148     -2.7900541      4272.3016      61.239218      58.284918      58.284918     -0.32455949     0.030386097   -0.14277905     0.056282033    0.055589293   -0.0075507424   4954.8107      279804.43    
    700000   700            0.99634615    -0.25600952     7.6064351      1.4945126      10.395031      9.1009477     -2.7885958      5718.027       61.251054      58.290266      58.290266     -0.45595756    -0.066954632   -0.24511636    -0.026165784    0.050422594   -0.13833559     4982.5723      279735.85    
    704000   704            0.99646708    -0.047426931    7.6067593      1.494694       10.395341      9.1014533     -2.7885812      5656.8049      61.26289       58.275512      58.275512     -0.14120807     0.011340623   -0.012413345   -0.041953492    0.086867697   -0.045990934    5010.5738      279681.12    
    708000   708            0.99757842     0.0078711211   7.6093955      1.496361       10.396819      9.1057565     -2.7874238      4735.9045      61.274726      58.278747      58.278747     -0.072981135    0.10446115    -0.0078666472   0.032131835   -0.0014340142  -0.091899916    5038.2417      279608.18    
    712000   712            0.99704699    -0.12755708     7.6061537      1.4955639      10.396901      9.1017176     -2.7907476      5699.6008      61.286562      58.263681      58.263681     -0.33703684    -0.020911415   -0.024722995   -0.015834861   -0.049765578    0.011564948    5066.3559      279560.38    
    716000   716            0.99788458    -0.09264756     7.6006644      1.4968202      10.391496      9.0974847     -2.7908315      6706.7128      61.298398      58.261686      58.261686     -0.25043635    -0.027696345    0.00019001764 -0.098345499    0.080314149    0.050441087    5094.4637      279512.45    
    720000   720            0.99986645    -0.12887745     7.6045395      1.499793       10.395036      9.1043325     -2.7904962      5213.8768      61.310234      58.255381      58.255381     -0.20952693    -0.17210082    -0.0050045959   0.015340127   -0.0025523263  -0.038040491    5122.3319      279451.66    
    724000   724            0.99936192    -0.014739741    7.6040228      1.4990363      10.395896      9.1030591     -2.791873       5553.5875      61.32207       58.234961      58.234961     -0.18364759     0.049118375    0.090309989   -0.025153764   -0.0035127283   0.0080068084   5150.1637      279389.27    
    728000   728            0.99961786     0.008013593    7.599405       1.4994202      10.391284      9.0988252     -2.7918786      6561.3057      61.333906      58.223145      58.223145     -0.15232339     0.047483642    0.12888053    -0.040056888    0.080090857   -0.01071079     5177.8076      279317.11    
    732000   732            1.0008947     -0.10330197     7.6031782      1.5013354      10.393239      9.1045136     -2.7900604      5327.7173      61.345742      58.24485       58.24485      -0.32950553    -0.00015809596  0.019757709   -0.0587433      0.072232513   -0.1413134      5205.6704      279257.19    
    736000   736            0.9998979     -0.13669173     7.6035254      1.4998402      10.39521       9.1033656     -2.7916845      5639.5104      61.357578      58.217811      58.217811     -0.2708648     -0.096779206   -0.042431178    0.04599255     0.013447204   -0.080421388    5233.4946      279195.56    
    740000   740            0.999427      -0.11120194     7.5970814      1.4991339      10.391167      9.0962152     -2.7940853      7304.8095      61.369414      58.215546      58.215546     -0.22986783    -0.092125214   -0.011612771    0.016702338   -0.022030723   -0.078806732    5261.3155      279134.12    
    744000   744            1.0003746      0.015810403    7.6047874      1.5005552      10.393624      9.1053426     -2.7888362      5295.5448      61.38125       58.231332      58.231332     -0.15586044     0.05295219     0.15033946    -0.044370725    0.01196081    -0.003326063    5288.8895      279060.01    
    748000   748            1.0000243     -0.11568201     7.6064017      1.5000298      10.395513      9.1064315     -2.7891117      5103.5499      61.393086      58.224362      58.224362     -0.28264893     0.035780545   -0.10017763    -0.05939586    -0.014607437    0.048612753    5316.9008      279009.35    
    752000   752            0.99648583    -0.023455658    7.6029811      1.4947221      10.39407       9.0977032     -2.7910888      7127.3133      61.404922      58.193537      58.193537     -0.13566211     0.048935357    0.016359778   -0.11775174     0.073562589   -0.015662371    5344.6969      278947.69    
    756000   756            1.0006001      0.012405714    7.6031286      1.5008935      10.395462      9.1040221     -2.792333       5751.9657      61.416758      58.202929      58.202929      0.028887983   -0.042313311    0.050642471   -0.12007209     0.011444977   -0.0026839352   5372.7423      278899.34    
    760000   760            1.0007756     -0.11993028     7.6051324      1.5011567      10.392997      9.1062892     -2.7878643      5290.7957      61.428594      58.196933      58.196933     -0.26311034    -0.043633282   -0.053047225   -0.0084249784  -0.031306198   -0.12309882     5400.6562      278844.41    
    764000   764            0.99892152    -0.091332139    7.6071291      1.4983756      10.394309      9.1055047     -2.7871804      5521.3847      61.44043       58.201051      58.201051     -0.19465842    -0.039993191   -0.039344807    0.04085922    -0.0069504813  -0.0064670038   5428.5924      278790.91    
    768000   768            0.99973738    -0.073455115    7.606255       1.4995994      10.396838      9.1058545     -2.7905834      5494.1395      61.452266      58.174013      58.174013     -0.21795003     0.011967403   -0.01438272    -0.046703986    0.13252937    -0.094106662    5456.6638      278744.58    
    772000   772            1.003144       0.0073743314   7.6036334      1.5047093      10.394333      9.1083428     -2.7906996      4982.4419      61.464101      58.173198      58.173198     -0.10469587     0.0051917131   0.12162715    -0.11442836     0.043231029   -0.026086035    5484.7012      278696.71    
    776000   776            1.0005653     -0.055952831    7.6003079      1.5008413      10.391622      9.1011492     -2.7913144      6658.6633      61.475937      58.171004      58.171004     -0.19959423     0.015898294    0.01583744    -0.068566349   -0.070108758    0.027137516    5512.6201      278643.05    
    780000   780            0.99844299    -0.1238263      7.6069814      1.4976579      10.396068      9.1046393     -2.7890861      5924.7885      61.487773      58.176112      58.176112     -0.29799202    -0.065312699   -0.0081741675   0.0027818518   0.064227677   -0.0074273015   5540.577       278591.58    
    784000   784            1.0023012     -0.076323782    7.6052454      1.5034452      10.39398       9.1086907     -2.788735       5061.7193      61.499609      58.175116      58.175116     -0.16739506    -0.068132406    0.0065561202   0.0053412119   0.032609383   -0.016886779    5568.4676      278537.02    
    788000   788            0.99980464     0.047784248    7.6043514      1.4997003      10.392944      9.1040517     -2.7885928      6162.2172      61.511445      58.15561       58.15561      -0.18600203     0.20901866     0.12033612     0.032194471   -0.076201627   -0.036537089    5596.0618      278467.99    
    792000   792            0.99465373    -0.098215594    7.6044678      1.491974       10.394356      9.0964418     -2.7898883      7935.2785      61.523281      58.154827      58.154827     -0.34081178    -0.021277971    0.06744297     0.021614835    0.061217786    0.09616167     5623.9839      278415.6     
    796000   796            0.99986753     0.13200866     7.6060337      1.4997947      10.394792      9.1058284     -2.7887585      5865.3025      61.535117      58.146535      58.146535      0.022778561    0.23780775     0.13543966     0.033953592   -0.014682248   -0.018674999    5651.2042      278328.9     
    800000   800            1.0002724     -0.13590414     7.6068931      1.5004019      10.395005      9.107295      -2.7881118      5585.5998      61.546953      58.154368      58.154368     -0.29756995    -0.084910339   -0.025232142   -0.080474879   -0.012238103    0.013642126    5679.2334      278282.44    
    804000   804            0.99872995    -0.088618303    7.6019073      1.4980883      10.393298      9.0999956     -2.7913907      7286.3066      61.558789      58.137196      58.137196     -0.17436734     0.008108976   -0.099596544   -0.039834552    0.01620093    -0.059556277    5706.8264      278214.89    
    808000   808            0.99971044    -0.041470622    7.6072922      1.499559       10.397067      9.1068512     -2.7897752      5790.4857      61.570625      58.130413      58.130413     -0.21649578    -0.055960534    0.14804445     0.020849026   -0.012717125   -0.069419111    5734.9322      278172.6     
    812000   812            1.0013382     -0.080078241    7.6060693      1.5020006      10.394463      9.1080699     -2.788394       5567.2635      61.582461      58.130855      58.130855     -0.15359066     0.0083500498  -0.09499411     0.022470695    0.038236355   -0.021987797    5762.4975      278104.37    
    816000   816            0.99915569    -0.068300743    7.6024969      1.4987269      10.389642      9.1012238     -2.7871452      7165.5759      61.594297      58.126682      58.126682     -0.29660183     0.0071037644   0.084595836   -0.073783145   -0.020535155   -0.011554671    5790.1505      278040.76    
    820000   820            1.0003275     -0.091041435    7.6068627      1.5004847      10.394239      9.1073473     -2.7873764      5836.9893      61.606133      58.131642      58.131642     -0.31267025    -0.034034613    0.073580562   -0.044140901    0.060646938    0.095146455    5818.0175      277987.72    
    824000   824            1.0010434     -0.14045754     7.6098699      1.5015584      10.396691      9.1114284     -2.7868212      4967.6896      61.617969      58.11583       58.11583      -0.33245518    -0.10541732     0.016499887   -0.090319975    0.08939049    -0.0081199374   5845.9769      277939.31    
    828000   828            0.99797615    -0.11237036     7.6061497      1.4969576      10.393948      9.1031073     -2.7877987      6900.2712      61.629805      58.11036       58.11036      -0.31209602     0.0095993082  -0.034614371   -0.01180019     0.056972129    0.082533472    5873.8881      277888.82    
    832000   832            1.0018951      0.016790607    7.6020438      1.5028361      10.392956      9.1048799     -2.7909123      6550.8846      61.641641      58.095622      58.095622     -0.21950943     0.088581664    0.18129959     0.056010563   -0.090896739    0.027170576    5901.8144      277839.26    
    836000   836            0.99811045    -0.076069541    7.6096968      1.497159       10.39632       9.1068558     -2.7866233      6157.7069      61.653477      58.102693      58.102693     -0.1713174      0.0036904079  -0.060581629   -0.12397687    -0.090427469    0.00020777587  5929.7634      277790.97    
    840000   840            0.99927272     0.009370161    7.6094821      1.4989024      10.394928      9.1083846     -2.7854462      5864.7407      61.665313      58.106492      58.106492     -0.17248873    -0.027243517    0.22784273     0.06665911     0.085922315   -0.078891952    5957.3441      277725.71    
[...]
  39768000   39768          1.0020336     -0.336456       7.7395196      1.5030438      10.406666      9.2425634     -2.6671462      322394.69      176.8528       34.964615      34.964615     -0.70043348    -0.20371237    -0.10522215    -0.028912427   -0.0055515321  -0.029068846    364742.73      2127.8494    
  39772000   39772          1.0001315     -0.19493943     7.7367869      1.5001906      10.402519      9.2369775     -2.6657326      323681.57      176.86464      34.9754        34.9754       -0.67785114     0.043809809    0.049223035   -0.049091319    0.085998712    0.069367437    364782.28      2091.1787    
  39776000   39776          1.0004839     -0.13062955     7.7417783      1.5007192      10.405106      9.2424975     -2.6633279      322459.86      176.87647      34.975958      34.975958     -0.61220742     0.12511567     0.095203118   -0.045634503    0.06811161     0.11300422     364821.74      2054.507     
  39780000   39780          1.0050228     -0.28454403     7.740305       1.5075276      10.40509       9.2478326     -2.6647852      321279.22      176.88831      34.966567      34.966567     -0.61886243    -0.11217052    -0.12259915     0.018596441    0.040048368   -0.048542035    364861.31      2017.8353    
  39784000   39784          0.99659313    -0.36056368     7.7444689      1.4948831      10.408751      9.2393519     -2.6642817      323221.41      176.90015      34.965843      34.965843     -0.8069454     -0.14231637    -0.13242927     0.011271027    0.046359768   -0.014649962    364900.64      1981.1617    
  39788000   39788          0.99788983    -0.29433273     7.7414026      1.4968281      10.402685      9.2382307     -2.6612821      323496.82      176.91198      34.974802      34.974802     -0.61246788    -0.11614411    -0.15438619    -0.043512211   -0.0028332988   0.022155915    364939.58      1944.4856    
  39792000   39792          1.001859      -0.098327478    7.7423214      1.5027819      10.405751      9.2451033     -2.6634301      321969.17      176.92382      34.965587      34.965587     -0.61696312     0.24126025     0.080720439    0.076721592   -0.042136783    0.09424619     364979.16      1907.8123    
  39796000   39796          0.99987001    -0.22466586     7.7355         1.4997984      10.402535      9.2352984     -2.6670347      324207.63      176.93565      34.960274      34.960274     -0.7534797      0.091179709   -0.011697579   -0.047702607   -0.0041383316  -0.051331792    365018.72      1871.1383    
  39800000   39800          0.9994386     -0.28520543     7.737712       1.4991513      10.406499      9.2368632     -2.6687865      323880.9       176.94749      34.957424      34.957424     -0.70356856    -0.11542641    -0.036621308    0.0066424037   0.057091925    0.0083511853   365057.9       1834.4618    
  39804000   39804          1.0019163     -0.24325148     7.7425663      1.5028679      10.404783      9.2454342     -2.6622171      321968.32      176.95933      34.968988      34.968988     -0.65631542    -0.060677887   -0.012761122   -0.02243564     0.005378215   -0.037167769    365097.57      1797.7872    
  39808000   39808          1.0030689     -0.2949341      7.739308       1.5045967      10.404418      9.2439048     -2.6651096      322338.9       176.97116      34.959454      34.959454     -0.82359343     0.0060852564  -0.067294113   -0.059327903    0.092882823   -0.025313668    365137.03      1761.1111    
  39812000   39812          0.99655305    -0.27909104     7.7417231      1.494823       10.404659      9.2365461     -2.6629364      324026.77      176.983        34.970012      34.970012     -0.74904532    -0.046707785   -0.041520015   -0.032936401    0.039558299   -0.01151891     365176.05      1724.4323    
  39816000   39816          0.99785613    -0.20360798     7.7423245      1.4967776      10.40491       9.2391021     -2.6625854      323473.4       176.99483      34.9641        34.9641       -0.57981928     0.032025694   -0.063030343   -0.13540618     0.067771388    0.0037319949   365215.59      1687.7554    
  39820000   39820          1.0026655     -0.24496874     7.7419932      1.5039916      10.405208      9.2459847     -2.6632153      321942.13      177.00667      34.960129      34.960129     -0.70582417    -0.088050474    0.058968414    0.0049942364   0.0012911418  -0.091914109    365255.01      1651.0774    
  39824000   39824          0.99735439    -0.25969111     7.7421794      1.496025       10.408622      9.2382044     -2.6664426      323726.7       177.01851      34.959559      34.959559     -0.65666815    -0.098183625   -0.02422156    -0.0035952916  -0.00844197    -0.019147657    365293.76      1614.3959    
  39828000   39828          0.99903208    -0.35553536     7.7412887      1.4985415      10.407414      9.2398302     -2.6661248      323383.56      177.03034      34.956792      34.956792     -0.79270171    -0.19316902    -0.080735358    0.027065555    0.027875712   -0.11195972     365333.39      1577.7178    
  39832000   39832          1.0015479     -0.25949731     7.7453603      1.5023152      10.406274      9.2476754     -2.6609138      321635.46      177.04218      34.96199       34.96199      -0.7733915      0.10262584    -0.10772628     0.022155733    0.10567141     0.03480475     365372.81      1541.0382    
  39836000   39836          1.0008059     -0.31719179     7.7396809      1.5012022      10.401735      9.2408831     -2.6620538      323193.68      177.05401      34.96325       34.96325      -0.7543177      0.0069550246  -0.20421269     0.032675459   -0.047025557    0.038382376    365412.5       1504.3591    
  39840000   39840          0.99744525    -0.17696024     7.743326       1.4961613      10.407226      9.2394873     -2.6639001      323535.73      177.06585      34.957684      34.957684     -0.55414637    -0.041336739    0.064602372    0.0064711426   0.041624964    0.0093662442   365452.05      1467.6789    
  39844000   39844          0.99903128    -0.16714444     7.7367959      1.4985403      10.40537       9.2353361     -2.6685744      324496.52      177.07769      34.940798      34.940798     -0.61691639     0.07086971     0.044613358    0.032211218    0.013032713   -0.079144256    365491.43      1430.9975    
  39848000   39848          1.0017549     -0.23761189     7.7362093      1.5026256      10.403281      9.238835      -2.6670717      323730.18      177.08952      34.939694      34.939694     -0.66395517    -0.067133128    0.018252626    0.06321504     0.055548537   -0.067901852    365530.9       1394.3158    
  39852000   39852          1.0005341     -0.25762437     7.7436021      1.5007945      10.410068      9.2443967     -2.6664663      322500.13      177.10136      34.953809      34.953809     -0.65817466    -0.032603982   -0.082094476    0.00069049143 -0.11179799    -0.011311954    365570.34      1357.6335    
  39856000   39856          0.99665213    -0.26958303     7.744064       1.4949716      10.406785      9.2390356     -2.6627209      323736.11      177.11319      34.957144      34.957144     -0.84802247    -0.03083644     0.070109835    0.02272636     0.050140637   -0.066580471    365609.49      1320.9496    
  39860000   39860          0.99997823    -0.12398679     7.7399625      1.4999607      10.403554      9.2399232     -2.6635917      323558.84      177.12503      34.95329       34.95329      -0.53024738     0.097124839    0.061162172   -0.10714045    -0.05883891     0.034837933    365648.87      1284.266     
  39864000   39864          1.0021931     -0.19483732     7.7386599      1.503283       10.404496      9.2419429     -2.6658365      323129.16      177.13687      34.951284      34.951284     -0.62470274     0.071059071   -0.030868301   -0.021077779    0.086136979    0.0061867926   365688.1       1247.5813    
  39868000   39868          1.0009612     -0.22109127     7.7415695      1.5014351      10.406092      9.2430046     -2.6645224      322914.01      177.1487       34.955734      34.955734     -0.74993943     0.10867097    -0.022005344    0.011553499    0.049624573   -0.056077911    365727.16      1210.8956    
  39872000   39872          0.99675494    -0.34859119     7.739496       1.4951258      10.404545      9.2346218     -2.6650495      324832.69      177.16054      34.954302      34.954302     -0.81188707    -0.18271658    -0.05116992     0.01196574    -0.03043469    -0.063084994    365766.47      1174.2102    
  39876000   39876          0.99929573    -0.21618721     7.7418778      1.498937       10.405355      9.2408147     -2.6634772      323457.84      177.17237      34.945475      34.945475     -0.72671811     0.023148992    0.055007494    0.024902624   -0.03156476     0.0095510545   365805.78      1137.5242    
  39880000   39880          1.0006437     -0.17448297     7.7429452      1.5009589      10.407275      9.2439041     -2.6643297      322786.5       177.18421      34.953848      34.953848     -0.67241211     0.034202849    0.11476035    -0.025005232    0.029890714   -0.11379422     365845.24      1100.8382    
  39884000   39884          0.99866804    -0.29258246     7.7388121      1.4979954      10.404131      9.2368076     -2.6653186      324412.87      177.19605      34.9549        34.9549       -0.77572965    -0.038288125   -0.063729613    0.0019634484  -0.030981154   -0.017044631    365884.99      1064.1525    
  39888000   39888          0.99737962    -0.20375965     7.7402069      1.4960628      10.406373      9.2362697     -2.6661656      324560.78      177.20788      34.946561      34.946561     -0.82858611     0.20995544     0.007351727    0.060677616   -0.024250264   -0.056272959    365924.02      1027.4642    
  39892000   39892          0.99971056    -0.23115416     7.7432365      1.4995592      10.406598      9.2427957     -2.6633617      323112.08      177.21972      34.94978       34.94978      -0.62439441    -0.075224277    0.0061561941   0.081752468    0.022105598    8.3962826e-05  365963.18      990.77567    
  39896000   39896          1.0003417     -0.11435195     7.739355       1.5005059      10.404134      9.2398609     -2.6647787      323797.78      177.23155      34.944914      34.944914     -0.50652319     0.13592498     0.02754236    -0.047586591   -0.015787356    0.045683248    366002.89      954.08814    
  39900000   39900          0.99824794    -0.23486166     7.7408798      1.4973653      10.404945      9.2382451     -2.6640647      324188.07      177.24339      34.953533      34.953533     -0.6920699      0.040806605   -0.053321668    0.055688854   -0.035737378   -0.059011196    366042.28      917.3992     
  39904000   39904          1.0003635     -0.24522356     7.7459992      1.5005386      10.408539      9.2465378     -2.6625394      322341.35      177.25522      34.945034      34.945034     -0.76386243    -0.10565213     0.13384387    -0.030248627    0.0035368496  -0.070277809    366081.54      880.7094     
  39908000   39908          1.0016899     -0.2082825      7.736313       1.5025281      10.402697      9.2388412     -2.6663838      324101.49      177.26706      34.942225      34.942225     -0.74115528     0.029505784    0.086802011    0.043110462   -0.02627397    -0.059903427    366121.04      844.01964    
  39912000   39912          1.0000811     -0.20421486     7.7401907      1.500115       10.405582      9.2403057     -2.6653914      323797.54      177.2789       34.945157      34.945157     -0.55207076    -0.065630241    0.0050564128  -0.038084324   -0.038771293    0.022824485    366160.46      807.32914    
  39916000   39916          1.0013096     -0.098652615    7.7415125      1.5019577      10.405461      9.2434702     -2.6639483      323107.27      177.29073      34.943998      34.943998     -0.40916384     0.040897137    0.072308862    0.03896086    -0.071131669   -0.033127456    366199.9       770.63814    
  39920000   39920          0.99885279    -0.23919967     7.7407221      1.4982726      10.406147      9.2389946     -2.665425       324143.09      177.30257      34.933966      34.933966     -0.64842674     0.074914353   -0.14408662     0.078619953   -0.037800813    0.050057668    366239.42      733.94674    
  39924000   39924          0.99760782    -0.22199732     7.7381111      1.4964051      10.406728      9.2345163     -2.6686169      325178.57      177.3144       34.923241      34.923241     -0.73025648     0.07036941    -0.0061049083   0.029859349    0.06265917     0.028720029    366278.59      697.25411    
  39928000   39928          1.0019256     -0.29660689     7.7404417      1.5028818      10.404855      9.2433235     -2.6644135      323212.45      177.32624      34.936941      34.936941     -0.6991467     -0.062447621   -0.12822634    -0.060695933    0.050990594   -0.048287404    366318.13      660.56164    
  39932000   39932          0.99786137    -0.30731879     7.7409759      1.4967854      10.405347      9.2377613     -2.664371       324494.68      177.33808      34.949381      34.949381     -0.81394742    -0.023674639   -0.084334303   -0.096947157   -0.038739141    0.11691093     366357.49      623.86831    
  39936000   39936          1.000815      -0.22399242     7.7369246      1.5012158      10.403081      9.2381405     -2.6661559      324433.58      177.34991      34.925661      34.925661     -0.72463366     0.16083042    -0.10817403    -0.00028519443  0.10094427    -0.029740684    366397.04      587.17475    
  39940000   39940          1.002264      -0.36656577     7.7416232      1.5033893      10.406931      9.2450126     -2.665308       322906.71      177.36175      34.939089      34.939089     -0.72349424    -0.23836541    -0.13783767     0.042469224    0.11767033     0.056024113    366436.5       550.48048    
  39944000   39944          1.0032379     -0.2821846      7.7442866      1.5048502      10.408011      9.2491368     -2.6637242      321999.05      177.37358      34.932796      34.932796     -0.6802021     -0.052269703   -0.11408199    -0.032836017    0.025323933   -0.030264175    366476.14      513.7859     
  39948000   39948          1.0008345     -0.24300113     7.7405141      1.5012451      10.405511      9.2417592     -2.6649972      323690.99      177.38542      34.924112      34.924112     -0.67450607    -0.0084157914  -0.046081524    0.028166129    0.025448901   -0.0057405987   366515.55      477.09043    
  39952000   39952          0.99844289    -0.32049592     7.7432297      1.4976577      10.407169      9.2408874     -2.6639393      323913.38      177.39726      34.934291      34.934291     -0.88792734    -0.069403493   -0.0041569262  -0.0060179121  -0.033874219    0.018033806    366554.84      440.39428    
  39956000   39956          1.001226      -0.22783586     7.74559        1.5018324      10.408693      9.2474224     -2.6631032      322462.32      177.40909      34.93331       34.93331      -0.77923749     0.070909368    0.024820548   -0.13575491    -0.059865563    0.055400542    366594.07      403.69754    
  39960000   39960          1.0006819     -0.17589372     7.7380984      1.5010162      10.403188      9.2391146     -2.6650894      324361.81      177.42093      34.91628       34.91628      -0.77967896     0.10122064     0.15077716     0.0060460746  -0.041915229   -0.044453167    366633.52      367.00052    
  39964000   39964          0.99935523    -0.185795       7.7395854      1.4990262      10.403786      9.2386116     -2.6642004      324501.36      177.43276      34.925036      34.925036     -0.73480308     0.086919999    0.090498063    0.053008168   -0.07687915    -0.02015347     366672.94      330.30292    
  39968000   39968          1.0060361     -0.25220779     7.7393409      1.5090474      10.404506      9.2483883     -2.665165       322316.49      177.4446       34.927779      34.927779     -0.66967579    -0.0012318962  -0.085715691   -0.080175999   -0.010228028   -0.035634065    366712.43      293.60483    
  39972000   39972          1.0003792     -0.24078981     7.7429589      1.5005621      10.405297      9.243521      -2.662338       323442.17      177.45644      34.925749      34.925749     -0.72387523     0.099865735   -0.098359945    0.10468122     0.042054563   -0.026634971    366751.98      256.90622    
  39976000   39976          0.99856659    -0.18577992     7.7400023      1.4978433      10.405397      9.2378456     -2.665395       324749.54      177.46827      34.911183      34.911183     -0.66127325     0.13401893    -0.030085439    0.074808273    0.083886217   -0.073149813    366791.44      220.20699    
  39980000   39980          0.99678298    -0.26643579     7.7368192      1.4951679      10.402344      9.2319871     -2.6655243      326098.42      177.48011      34.911493      34.911493     -0.72561509    -0.064374789   -0.0093174908   0.11810408     0.092988471   -0.037866775    366830.91      183.50721    
  39984000   39984          0.99956132    -0.25963897     7.7407755      1.4993353      10.403464      9.2401108     -2.6626886      324286.91      177.49194      34.924876      34.924876     -0.74198762    -0.029439378   -0.0074899131   0.0081980612   0.051484093    0.014895698    366869.99      146.80672    
  39988000   39988          1.0004758     -0.22530223     7.7411318      1.500707       10.406297      9.2418389     -2.6651652      323922.93      177.50378      34.917976      34.917976     -0.65339721     0.064176189   -0.086685662   -0.06287237    -0.039161109    0.0047145048   366909.84      110.10599    
  39992000   39992          0.99860906    -0.21120064     7.7353544      1.497907       10.401276      9.2332613     -2.6659212      325884.51      177.51562      34.915193      34.915193     -0.53494978    -0.046942988   -0.051709156    0.030244009   -0.13055032    -0.0022803603   366948.93      73.404467    
  39996000   39996          0.99959579    -0.13943817     7.737218       1.499387       10.406026      9.236605      -2.6688083      325155.37      177.52745      34.896462      34.896462     -0.52200118     0.12390349    -0.020216813    0.035106534    0.026459699    0.044218455    366988.3       36.7025      
  40000000   40000          1.0001316     -0.26197121     7.7394633      1.5001908      10.406388      9.2396541     -2.6669251      324490.12      177.53929      34.900593      34.900593     -0.7446633      0.024096546   -0.065346889   -0.0057396457  -0.092745316   -0.11076565     367027.66      0            
Loop time of 367028 on 18 procs for 40000000 steps with 225980 atoms

Performance: 9416.184 tau/day, 108.984 timesteps/s
94.6% CPU use with 18 MPI tasks x 1 OpenMP threads

MPI task timing breakdown:
Section |  min time  |  avg time  |  max time  |%varavg| %total
---------------------------------------------------------------
Pair    | 20234      | 26303      | 28606      |1262.3 |  7.17
Bond    | 95625      | 1.3075e+05 | 1.5002e+05 |3848.7 | 35.62
Neigh   | 308.94     | 322.9      | 332.28     |  36.2 |  0.09
Comm    | 58051      | 79680      | 1.1827e+05 |5427.8 | 21.71
Output  | 1795.9     | 1796       | 1796.1     |   0.1 |  0.49
Modify  | 1.2079e+05 | 1.2176e+05 | 1.2438e+05 | 233.4 | 33.18
Other   |            | 6415       |            |       |  1.75

Nlocal:        12554.4 ave       13081 max       11615 min
Histogram: 1 0 0 1 3 2 2 4 3 2
Nghost:        26445.9 ave       27203 max       25166 min
Histogram: 1 0 1 1 3 3 1 1 4 3
Neighs:              0 ave           0 max           0 min
Histogram: 18 0 0 0 0 0 0 0 0 0

Total # of neighbors = 0
Ave neighs/atom = 0
Ave special neighs/atom = 66.124259
Neighbor list builds = 212047
Dangerous builds = 0

# GENERATION RESTART
write_restart ./out.deform.restart
System init for write_restart ...
Generated 0 of 36 mixed pair_coeff terms from geometric mixing rule
write_data    ./out.deform.data pair ij
System init for write_data ...
Generated 0 of 36 mixed pair_coeff terms from geometric mixing rule
Total wall time: 101:57:13
