LAMMPS (15 Sep 2022)
OMP_NUM_THREADS environment is not set. Defaulting to 1 thread. (src/comm.cpp:98)
  using 1 OpenMP thread(s) per MPI task
package gpu 0 binsize 12.0
# LAMMPS Script for deform
# Generated 12/17/2022

# INIT PARAMS & READ CONF
include   "/work_bgfs/h/harshad/simulation_9/quiescent_script/filler_repulsive/system.init"
# UNITS
units		lj
dimension	3
atom_style	bond

# INPUT FILE
pair_style	lj/cut 2.5
bond_style	hybrid harmonic fene
read_data /work_bgfs/h/harshad/simulation_9/np7/5000chain/150phr/9_stretching/filler_repulsive/quiescent/thermal_replicates/5.npt.data
Reading data file ...
  orthogonal box = (0.41330821 0.41330821 0.41330821) to (59.586692 59.586692 59.586692)
  2 by 3 by 3 MPI processor grid
  reading atoms ...
  225980 atoms
  reading velocities ...
  225980 velocities
  scanning bonds ...
  16 = max bonds/atom
  reading bonds ...
  923860 bonds
Finding 1-2 1-3 1-4 neighbors ...
  special bond factors lj:    0        0        0       
  special bond factors coul:  0        0        0       
    19 = max # of 1-2 neighbors
   285 = max # of 1-3 neighbors
  4477 = max # of 1-4 neighbors
   201 = max # of special neighbors
  special bonds CPU = 0.316 seconds
  read_data CPU = 2.820 seconds
include   "/work_bgfs/h/harshad/simulation_9/quiescent_script/filler_repulsive/system.kappa1000.settings"
# ATOM TYPE
mass  1  1.0 #backbone
mass  2  1.0 #endmer
mass  3  1.0 #crosslinker
mass  4  1.0 #outer shell
mass  5  1.0 #inner shell 2
mass  6  1.0 #inner-most shell
mass  7  1.0 #center bead
mass  8  1.0 #endmer post crosslinking
mass  9  1.0 #crosslinker post crosslinking

# BOND
bond_coeff 1 harmonic 1000 0.951057
bond_coeff 2 harmonic 1000 1.000000
bond_coeff 3 harmonic 1000 1.380039
bond_coeff 4 harmonic 1000 1.414214
bond_coeff 5 fene 30.0 1.50 1.0 1.0
special_bonds lj 0.0 1.0 1.0
Finding 1-2 1-3 1-4 neighbors ...
  special bond factors lj:    0        1        1       
  special bond factors coul:  0        0        0       
    19 = max # of 1-2 neighbors
   285 = max # of 1-3 neighbors
  4477 = max # of 1-4 neighbors
   201 = max # of special neighbors
  special bonds CPU = 0.291 seconds

# PAIR
variable rcut equal 2^(1/6)
pair_coeff  1*3 1*9 1 1
pair_coeff  4*7 4*7 1 1 ${rcut}
pair_coeff  4*7 4*7 1 1 1.12246204830937
pair_coeff  4*9 8*9 1 1

pair_modify  shift yes
neigh_modify delay 1 check yes

# MAKE GROUPS
group polymer type 1 2 3 8 9
102500 atoms in group polymer
#group ins     type 1
#group strand  type 1 2 8
#group ends    type 2 8
#group xlinks  type 3 9
group filler  type 4 5 6 7
123480 atoms in group filler

neighbor 1.5 multi
comm_modify     mode multi cutoff/multi 1 1.5 cutoff/multi * 2.8

# INPUTS FROM SBATCH
variable Temp          equal 1.0
variable gamma_total   equal 2.0
variable gamma_rate    equal 0.00005
variable dt            equal 0.001
variable Nfreq         equal 4000
variable Nrepeat_2     equal 100
variable Nevery_1      equal 1
variable Nrepeat_1     equal 1

variable Run           equal ${gamma_total}/${gamma_rate}/${dt}
variable Run           equal 2/${gamma_rate}/${dt}
variable Run           equal 2/5e-05/${dt}
variable Run           equal 2/5e-05/0.001

# RUN OPTIONS
run_style verlet
timestep  ${dt}
timestep  0.001

# RESTART
restart  ${Nfreq} cycle.1.restart cycle.2.restart
restart  4000 cycle.1.restart cycle.2.restart

# SAVE RESTARTS EVERY 10% EXTENSION
variable RestFreq      equal 0.1/${gamma_rate}/${dt}
variable RestFreq      equal 0.1/5e-05/${dt}
variable RestFreq      equal 0.1/5e-05/0.001
restart  ${RestFreq} deform.*.restart
restart  2000000 deform.*.restart

# COMPUTE ke/atom, pe/atom, pxx/atom, position and time-avg
compute     ke_atm          all     ke/atom
compute     p_atm           all     stress/atom NULL
compute     pe_atm          all     pe/atom
compute     ebond_atm       all     pe/atom bond
compute     posit_atm       all     property/atom x y z
fix         avg_ke_atm_1    all     ave/atom ${Nevery_1} ${Nrepeat_1} ${Nfreq} c_ke_atm
fix         avg_ke_atm_1    all     ave/atom 1 ${Nrepeat_1} ${Nfreq} c_ke_atm
fix         avg_ke_atm_1    all     ave/atom 1 1 ${Nfreq} c_ke_atm
fix         avg_ke_atm_1    all     ave/atom 1 1 4000 c_ke_atm
fix         avg_pxx_atm_1   all     ave/atom ${Nevery_1} ${Nrepeat_1} ${Nfreq} c_p_atm[*]
fix         avg_pxx_atm_1   all     ave/atom 1 ${Nrepeat_1} ${Nfreq} c_p_atm[*]
fix         avg_pxx_atm_1   all     ave/atom 1 1 ${Nfreq} c_p_atm[*]
fix         avg_pxx_atm_1   all     ave/atom 1 1 4000 c_p_atm[*]
fix         avg_pe_atm_1    all     ave/atom ${Nevery_1} ${Nrepeat_1} ${Nfreq} c_pe_atm
fix         avg_pe_atm_1    all     ave/atom 1 ${Nrepeat_1} ${Nfreq} c_pe_atm
fix         avg_pe_atm_1    all     ave/atom 1 1 ${Nfreq} c_pe_atm
fix         avg_pe_atm_1    all     ave/atom 1 1 4000 c_pe_atm
#fix         avg_posit_atm_1 all     ave/atom ${Nevery_1} ${Nrepeat_1} ${Nfreq} c_posit_atm[1] c_posit_atm[2] c_posit_atm[3]
dump        dump_1 all custom ${Nfreq} ${out_dir}traj.${Nevery_1}_${Nrepeat_1}_${Nfreq}.xyz mol type x y z f_avg_ke_atm_1 f_avg_pe_atm_1 f_avg_pxx_atm_1[*]
dump        dump_1 all custom 4000 ${out_dir}traj.${Nevery_1}_${Nrepeat_1}_${Nfreq}.xyz mol type x y z f_avg_ke_atm_1 f_avg_pe_atm_1 f_avg_pxx_atm_1[*]
dump        dump_1 all custom 4000 /shares_bgfs/dssimmons_data/harshad/deform/np7/150phr/filler_repulsive/replicate_5/work_bgfs--h--harshad--simulation_9--np7--5000chain--150phr--9_stretching--filler_repulsive--replicate_5--traj.${Nevery_1}_${Nrepeat_1}_${Nfreq}.xyz mol type x y z f_avg_ke_atm_1 f_avg_pe_atm_1 f_avg_pxx_atm_1[*]
dump        dump_1 all custom 4000 /shares_bgfs/dssimmons_data/harshad/deform/np7/150phr/filler_repulsive/replicate_5/work_bgfs--h--harshad--simulation_9--np7--5000chain--150phr--9_stretching--filler_repulsive--replicate_5--traj.1_${Nrepeat_1}_${Nfreq}.xyz mol type x y z f_avg_ke_atm_1 f_avg_pe_atm_1 f_avg_pxx_atm_1[*]
dump        dump_1 all custom 4000 /shares_bgfs/dssimmons_data/harshad/deform/np7/150phr/filler_repulsive/replicate_5/work_bgfs--h--harshad--simulation_9--np7--5000chain--150phr--9_stretching--filler_repulsive--replicate_5--traj.1_1_${Nfreq}.xyz mol type x y z f_avg_ke_atm_1 f_avg_pe_atm_1 f_avg_pxx_atm_1[*]
dump        dump_1 all custom 4000 /shares_bgfs/dssimmons_data/harshad/deform/np7/150phr/filler_repulsive/replicate_5/work_bgfs--h--harshad--simulation_9--np7--5000chain--150phr--9_stretching--filler_repulsive--replicate_5--traj.1_1_4000.xyz mol type x y z f_avg_ke_atm_1 f_avg_pe_atm_1 f_avg_pxx_atm_1[*]
dump_modify dump_1 append yes sort id

# COMPUTE a separate pe and ke for each group, AVG & SAVE
compute   pe_polymer    polymer reduce  sum c_pe_atm
compute   pe_filler     filler  reduce  sum c_pe_atm
compute   ebond_polymer polymer reduce  sum c_ebond_atm
compute   ebond_filler  filler  reduce  sum c_ebond_atm
compute   ke_polymer    polymer reduce  sum c_ke_atm
compute   ke_filler     filler  reduce  sum c_ke_atm
compute   pxx_polymer   polymer reduce  sum c_p_atm[1] c_p_atm[2] c_p_atm[3]
compute   pxx_filler    filler  reduce  sum c_p_atm[1] c_p_atm[2] c_p_atm[3]
compute   pxy_polymer   polymer reduce  sum c_p_atm[4] c_p_atm[5] c_p_atm[6]
compute   pxy_filler    filler  reduce  sum c_p_atm[4] c_p_atm[5] c_p_atm[6]
#compute   pxx_all       all     reduce  sum c_p_atm
fix 		  avgEnergy     all     ave/time ${Nevery_1} ${Nrepeat_2} ${Nfreq} c_pe_polymer c_ke_polymer c_ebond_polymer c_pe_filler c_ke_filler c_ebond_filler c_pxy_polymer[1] c_pxy_polymer[2] c_pxy_polymer[3] c_pxy_filler[1] c_pxy_filler[2] c_pxy_filler[3]   file energy.avg.csv
fix 		  avgEnergy     all     ave/time 1 ${Nrepeat_2} ${Nfreq} c_pe_polymer c_ke_polymer c_ebond_polymer c_pe_filler c_ke_filler c_ebond_filler c_pxy_polymer[1] c_pxy_polymer[2] c_pxy_polymer[3] c_pxy_filler[1] c_pxy_filler[2] c_pxy_filler[3]   file energy.avg.csv
fix 		  avgEnergy     all     ave/time 1 100 ${Nfreq} c_pe_polymer c_ke_polymer c_ebond_polymer c_pe_filler c_ke_filler c_ebond_filler c_pxy_polymer[1] c_pxy_polymer[2] c_pxy_polymer[3] c_pxy_filler[1] c_pxy_filler[2] c_pxy_filler[3]   file energy.avg.csv
fix 		  avgEnergy     all     ave/time 1 100 4000 c_pe_polymer c_ke_polymer c_ebond_polymer c_pe_filler c_ke_filler c_ebond_filler c_pxy_polymer[1] c_pxy_polymer[2] c_pxy_polymer[3] c_pxy_filler[1] c_pxy_filler[2] c_pxy_filler[3]   file energy.avg.csv
fix       avgPxx_all    all     ave/time ${Nevery_1} ${Nfreq} ${Nfreq}     c_pxx_polymer[1] c_pxx_polymer[2] c_pxx_polymer[3] c_pxx_filler[1] c_pxx_filler[2] c_pxx_filler[3]                                                                                    file pxx.all.avg.csv
fix       avgPxx_all    all     ave/time 1 ${Nfreq} ${Nfreq}     c_pxx_polymer[1] c_pxx_polymer[2] c_pxx_polymer[3] c_pxx_filler[1] c_pxx_filler[2] c_pxx_filler[3]                                                                                    file pxx.all.avg.csv
fix       avgPxx_all    all     ave/time 1 4000 ${Nfreq}     c_pxx_polymer[1] c_pxx_polymer[2] c_pxx_polymer[3] c_pxx_filler[1] c_pxx_filler[2] c_pxx_filler[3]                                                                                    file pxx.all.avg.csv
fix       avgPxx_all    all     ave/time 1 4000 4000     c_pxx_polymer[1] c_pxx_polymer[2] c_pxx_polymer[3] c_pxx_filler[1] c_pxx_filler[2] c_pxx_filler[3]                                                                                    file pxx.all.avg.csv

# TIME-AVG Ly
variable Ly equal ly
fix       avgLy         all     ave/time ${Nevery_1} ${Nfreq} ${Nfreq}     v_Ly  file Ly.avg.csv
fix       avgLy         all     ave/time 1 ${Nfreq} ${Nfreq}     v_Ly  file Ly.avg.csv
fix       avgLy         all     ave/time 1 4000 ${Nfreq}     v_Ly  file Ly.avg.csv
fix       avgLy         all     ave/time 1 4000 4000     v_Ly  file Ly.avg.csv

# SIMULATION FIXES
fix  npt        all npt temp ${Temp} ${Temp} 2.0 y 0 0 5 z 0 0 5 couple yz
fix  npt        all npt temp 1 ${Temp} 2.0 y 0 0 5 z 0 0 5 couple yz
fix  npt        all npt temp 1 1 2.0 y 0 0 5 z 0 0 5 couple yz
fix  mom        all momentum 10000 linear 1 1 1
fix  deform     all deform 1 x erate ${gamma_rate} remap x units box
fix  deform     all deform 1 x erate 5e-05 remap x units box

# THERMO
variable  thermo_frq equal ${Nfreq}
variable  thermo_frq equal 4000
thermo    ${thermo_frq}
thermo    4000
thermo_style  custom step time temp press pe ke ebond etotal epair ecouple lx ly lz pxx pyy pzz pxy pxz pyz cpu cpuremain

# deform
run ${Run}
run 40000000

CITE-CITE-CITE-CITE-CITE-CITE-CITE-CITE-CITE-CITE-CITE-CITE-CITE

Your simulation uses code contributions which should be cited:

- GPU package (short-range, long-range and three-body potentials): doi:10.1016/j.cpc.2010.12.021, doi:10.1016/j.cpc.2011.10.012, doi:10.1016/j.cpc.2013.08.002, doi:10.1016/j.commatsci.2014.10.068, doi:10.1016/j.cpc.2016.10.020, doi:10.3233/APC200086

@Article{Brown11,
 author = {W. M. Brown and P. Wang and S. J. Plimpton and A. N. Tharrington},
 title = {Implementing Molecular Dynamics on Hybrid High Performance Computers---Short Range Forces},
 journal = {Comput.\ Phys.\ Commun.},
 year =    2011,
 volume =  182,
 pages =   {898--911},
 doi =     {10.1016/j.cpc.2010.12.021}
}

@Article{Brown12,
 author = {W. M. Brown and A. Kohlmeyer and S. J. Plimpton and A. N. Tharrington},
 title = {Implementing Molecular Dynamics on Hybrid High Performance Computers - Particle-Particle Particle-Mesh},
 journal = {Comput.\ Phys.\ Commun.},
 year =    2012,
 volume =  183,
 doi =     {10.1016/j.cpc.2011.10.012},
 pages =   {449--459}
}

@Article{Brown13,
 author = {W. M. Brown and Y. Masako},
 title = {Implementing Molecular Dynamics on Hybrid High Performance Computers---Three-Body Potentials},
 journal = {Comput.\ Phys.\ Commun.},
 year =    2013,
 volume =  184,
 pages =   {2785--2793},
 doi =     {10.1016/j.cpc.2013.08.002},
}

@Article{Trung15,
 author = {T. D. Nguyen and S. J. Plimpton},
 title = {Accelerating Dissipative Particle Dynamics Simulations for Soft Matter Systems},
 journal = {Comput.\ Mater.\ Sci.},
 year =    2015,
 doi =     {10.1016/j.commatsci.2014.10.068},
 volume =  100,
 pages =   {173--180}
}

@Article{Trung17,
 author = {T. D. Nguyen},
 title = {{GPU}-Accelerated {T}ersoff Potentials for Massively Parallel
    Molecular Dynamics Simulations},
 journal = {Comput.\ Phys.\ Commun.},
 year =    2017,
 doi =     {10.1016/j.cpc.2016.10.020},
 volume =  212,
 pages =   {113--122}
}

@inproceedings{Nikolskiy19,
 author = {V. Nikolskiy and V. Stegailov},
 title = {{GPU} Acceleration of Four-Site Water Models in {LAMMPS}},
 booktitle = {Proceedings of the International Conference on Parallel
    Computing (ParCo 2019), Prague, Czech Republic},
 doi =     {10.3233/APC200086},
 year =    2019
}

- neighbor multi command: doi:10.1016/j.cpc.2008.03.005, doi:10.1007/s40571-020-00361-2

@Article{Intveld08,
 author =  {in 't Veld, P. J. and S. J.~Plimpton and G. S. Grest},
 title =   {Accurate and Efficient Methods for Modeling Colloidal
            Mixtures in an Explicit Solvent using Molecular Dynamics},
 journal = {Comput.\ Phys.\ Commut.},
 year =    2008,
 volume =  179,
 pages =   {320--329}
}

@article{Shire2020,
 author = {Shire, Tom and Hanley, Kevin J. and Stratford, Kevin},
 title = {{DEM} Simulations of Polydisperse Media: Efficient Contact
          Detection Applied to Investigate the Quasi-Static Limit},
 journal = {Computational Particle Mechanics},
 year = {2020}
}

CITE-CITE-CITE-CITE-CITE-CITE-CITE-CITE-CITE-CITE-CITE-CITE-CITE

Generated 0 of 36 mixed pair_coeff terms from geometric mixing rule
WARNING: Communication cutoff adjusted to 4 (src/comm.cpp:732)
WARNING: Inconsistent image flags (src/domain.cpp:819)
Per MPI rank memory allocation (min/avg/max) = 55.67 | 55.74 | 55.9 Mbytes
   Step          Time           Temp          Press          PotEng         KinEng         E_bond         TotEng         E_pair        Ecouple           Lx             Ly             Lz            Pxx            Pyy            Pzz            Pxy            Pxz            Pyz            CPU          CPULeft    
         0   0              1.0021483     -0.013212638    7.5861615      1.5032158      10.394793      9.0893773     -2.8086316      0              59.173384      59.173384      59.173384      0.02285638    -0.011353659   -0.051140634    0.0622762      0.047584362   -0.00052465287  0              0            
      4000   4              0.99732231     0.063656066    7.5860406      1.4959768      10.391406      9.0820174     -2.8053656      1707.8305      59.185218      59.19456       59.19456       0.061328302    0.037952167    0.09168773     0.058641461   -0.010188455   -0.031501349    27.980122      279773.25    
      8000   8              0.99596507    -0.078001075    7.5897457      1.493941       10.397037      9.0836867     -2.8072916      1377.7228      59.197053      59.171529      59.171529     -0.071343191   -0.11431954    -0.048340494   -0.0081943331   0.017518472   -0.056448984    55.648802      278188.37    
     12000   12             0.99913712    -0.0434998      7.5892796      1.498699       10.396833      9.0879787     -2.8075536      454.13254      59.208888      59.181376      59.181376     -0.14325194     0.028701488   -0.015948944   -0.042533618   -0.085510191   -0.043795068    83.154264      277097.73    
     16000   16             0.99723629    -0.11077594     7.5869694      1.4958478      10.396673      9.0828172     -2.809704       1667.5854      59.220722      59.158892      59.158892     -0.13177787    -0.093366155   -0.10718378     0.054960459   -0.0042371977   0.029497473    110.84312      276996.95    
     20000   20             0.99936065     0.085213787    7.5884274      1.4990343      10.393517      9.0874617     -2.8050892      664.86783      59.232557      59.162126      59.162126      0.067906909    0.03552598     0.15220847    -0.099168454    0.027169838    0.051046189    138.34346      276548.59    
     24000   24             1.002644       0.0023792521   7.5887265      1.5039594      10.395665      9.0926858     -2.8069382     -469.63834      59.244392      59.155221      59.155221     -0.0065500857   0.074294051   -0.060606209   -0.087735083   -0.075151107   -0.017345968    166.0522       276587.61    
     28000   28             0.99894659    -0.091825552    7.5863769      1.4984133      10.393132      9.0847902     -2.8067553      1360.747       59.256226      59.158745      59.158745     -0.1595855     -0.092452191   -0.02343896    -0.076306375   -0.061416822   -0.00010473391  193.78286      276638.87    
     32000   32             0.99845761     0.016538923    7.5900752      1.4976798      10.395594      9.087755      -2.8055187      740.74559      59.268061      59.158209      59.158209     -0.061596687    0.1683013     -0.057087848    0.078558932   -0.0068612767   0.024864432    221.57175      276743.11    
     36000   36             1.001673       0.015249703    7.591215       1.5025029      10.395962      9.0937179     -2.8047467     -559.34451      59.279896      59.155394      59.155394     -0.00037089408 -0.0026374676   0.048757471    0.012808997    0.00034522387  0.058704648    249.12136      276552.39    
     40000   40             0.99868034    -0.0074446364   7.5852373      1.4980139      10.389567      9.0832512     -2.80433        1851.2792      59.29173       59.152416      59.152416     -0.16687077    -0.066801293    0.21133815     0.055095374    0.084412404   -0.0066510216   277.40375      277126.35    
     44000   44             1.001439      -0.008796964    7.5895479      1.5021519      10.395408      9.0916998     -2.8058605     -8.7633158      59.303565      59.127654      59.127654     -0.060312886    0.037976536   -0.0040545416   0.061766377   -0.0098678903   0.055155041    304.68117      276678.2     
     48000   48             0.99987468    -0.02518786     7.5885211      1.4998054      10.393543      9.0883264     -2.805022       800.3583       59.3154        59.135735      59.135735     -0.1162         0.020102282    0.020534142   -0.0034908727  -0.016752465    0.067230129    332.3772       276648.63    
     52000   52             0.99921945    -0.04708316     7.5820117      1.4988225      10.388023      9.0808342     -2.8060112      2539.0134      59.327234      59.124861      59.124861     -0.024928854   -0.012492323   -0.1038283     -0.058654879   -0.077845468    0.045375636    359.99225      276557.12    
     56000   56             0.99936538    -0.11040733     7.5886109      1.4990414      10.392654      9.0876524     -2.8040433      1048.0263      59.339069      59.136157      59.136157     -0.2301188     -0.043555255   -0.057547943    0.041961523    0.061464389    0.055963341    387.69664      276538.48    
     60000   60             0.99994318     0.060568495    7.5911936      1.4999081      10.396926      9.0911017     -2.8057323      317.69089      59.350904      59.116995      59.116995      0.01773899     0.071373695    0.0925928     -0.05149346    -0.044289855    0.013343021    415.45522      276554.69    
     64000   64             0.99893877    -0.054181267    7.5862546      1.4984015      10.394111      9.0846561     -2.8078569      1820.9263      59.362738      59.108248      59.108248     -0.12645253    -0.076171486    0.040080215   -0.044106988   -0.025106492    0.077118873    443.25466      276590.91    
     68000   68             0.99903456    -0.14354741     7.5897078      1.4985452      10.393897      9.088253      -2.804189       1057.2429      59.374573      59.118209      59.118209     -0.12106874    -0.1312889     -0.17828461    -0.083769193    0.021974485    0.10099743     471.08665      276638.71    
     72000   72             0.99942313    -0.093806769    7.5922521      1.4991281      10.394487      9.0913802     -2.8022349      398.92451      59.386408      59.106619      59.106619     -0.17794085    -0.04181498    -0.061664474   -0.042541731    0.058589799   -0.032286521    498.67595      276543.52    
     76000   76             0.99716038    -0.067295064    7.5901527      1.4957339      10.396402      9.0858866     -2.806249       1688.6438      59.398242      59.087267      59.087267     -0.045765885   -0.068930146   -0.08718916    -0.00013071075 -0.043770206    0.019430862    526.54651      276603.2     
     80000   80             0.99808018    -0.0053789826   7.5835662      1.4971136      10.390804      9.0806798     -2.8072378      2910.2892      59.410077      59.077233      59.077233     -0.079521089    0.0010299086   0.062354233    0.034100546    0.022491824    0.00068065072  554.4376       276664.36    
     84000   84             0.99806887    -0.044897754    7.5919586      1.4970967      10.395053      9.0890552     -2.8030945      1067.6963      59.421912      59.103138      59.103138     -0.092733213   -0.098169034    0.056208986   -0.050568786    0.052814836   -0.051054029    582.45521      276777.17    
     88000   88             0.99980745    -0.045325942    7.5932951      1.4997045      10.397854      9.0929996     -2.8045585      225.20361      59.433746      59.072498      59.072498     -0.2233805      0.08982262    -0.0024199504  -0.014245002   -0.050281617    0.064531463    610.38839      276838.88    
     92000   92             0.99718673    -0.033930699    7.5878026      1.4957735      10.393172      9.0835761     -2.8053697      2402.5882      59.445581      59.068837      59.068837     -0.10841513     0.058165411   -0.051542379   -0.0016129996   0.043886695    0.057009275    638.14884      276817.87    
     96000   96             1.0004899     -0.090439721    7.5870605      1.5007282      10.390198      9.0877887     -2.8031375      1498.0943      59.457416      59.08027       59.08027      -0.22897177     0.020227217   -0.062574613    0.10709055    -0.034681554    0.068645419    665.74005      276725.95    
    100000   100            1.0019412     -0.17686932     7.5897022      1.5029052      10.393816      9.0926074     -2.8041134      459.21238      59.469251      59.079597      59.079597     -0.23902291    -0.21512806    -0.076457005    0.0053023663  -0.06392286     0.038008787    693.41249      276671.58    
    104000   104            0.9996273      0.024056562    7.5918735      1.4994343      10.395334      9.0913078     -2.8034609      802.27612      59.481085      59.076461      59.076461     -0.085923258    0.013737618    0.14435533    -0.018067258    0.05832817    -0.11534206     721.10364      276626.45    
    108000   108            0.99785857    -0.047025413    7.5883618      1.4967812      10.392123      9.085143      -2.8037612      2244.0278      59.49292       59.066115      59.066115     -0.10428344    -0.11378355     0.076990755   -0.072835977    0.084279432   -0.016283468    748.84282      276600.35    
    112000   112            1.0007728     -0.047212229    7.5875449      1.5011526      10.391513      9.0886975     -2.8039685      1488.3871      59.504755      59.056425      59.056425     -0.11879685     0.060724902   -0.083564736   -0.012583134    0.030118574   -0.067859906    776.61149      276584.64    
    116000   116            1.0001245     -0.072190821    7.5928239      1.5001802      10.393208      9.093004      -2.800384       563.97693      59.516589      59.065104      59.065104     -0.09579522    -0.058704033   -0.06207321     0.023174634    0.051789624    0.092746267    804.34511      276556.04    
    120000   120            1.000024      -0.062939956    7.5899215      1.5000293      10.391384      9.0899508     -2.801463       1303.4438      59.528424      59.048702      59.048702     -0.2446956     -0.0058080922   0.061683827   -0.01153981     0.061690953   -0.07261869     831.86254      276455.65    
    124000   124            0.99846492    -0.043829215    7.5879567      1.4976907      10.391748      9.0856475     -2.8037908      2325.2812      59.540259      59.043183      59.043183     -0.071502183    0.027691366   -0.087676828   -0.00095304139  0.069396463   -0.080920991    859.58817      276426.92    
    128000   128            1.0038665     -0.049647027    7.5892343      1.5057931      10.393909      9.0950273     -2.804675       254.92352      59.552093      59.024803      59.024803     -0.15245264     0.0070925248  -0.0035809675   0.024954244    0.068532309   -0.047967481    887.46092      276444.08    
    132000   132            0.99847797     0.0099662968   7.5918848      1.4977103      10.393519      9.0895951     -2.8016345      1530.4704      59.563928      59.035968      59.035968     -0.012292412   -0.061144452    0.10333575     0.013264525    0.034636858    0.060870666    915.29476      276446.75    
    136000   136            0.99835182    -0.012941889    7.5916422      1.4975211      10.395442      9.0891633     -2.8038001      1677.031       59.575763      59.014342      59.014342     -0.030714083   -0.023060974    0.01494939    -0.02612046    -0.054303163   -0.044107911    942.90121      276380.99    
    140000   140            1.0005722      0.049419937    7.5953693      1.5008516      10.393978      9.0962209     -2.7986085      131.65907      59.587597      59.037666      59.037666     -0.097561533    0.16884876     0.076972586   -0.086170335    0.019619467   -0.013306608    970.38906      276283.63    
    144000   144            0.99845094     0.10755335     7.5987481      1.4976698      10.399118      9.0964179     -2.8003696      137.30531      59.599432      59.027602      59.027602      0.027247403    0.23155017     0.063862478    0.012837501    0.026770391   -0.10228951     998.2825       276302.41    
    148000   148            0.99954415    -0.036601076    7.5917559      1.4993096      10.395586      9.0910654     -2.80383        1394.9152      59.611267      59.003086      59.003086     -0.12798817     0.084160663   -0.065975724   -0.01558739     0.072645251    0.089741162    1026.2383      276335.48    
    152000   152            0.99966873    -0.021199925    7.5943203      1.4994965      10.393626      9.0938168     -2.7993055      823.22176      59.623101      59.006077      59.006077     -0.066146678    0.002952918   -0.00040601436  0.05358379     0.028963845   -0.029892811    1054.1655      276357.8     
    156000   156            1.0015205     -0.11519146     7.5968663      1.5022741      10.397776      9.0991404     -2.8009101     -329.14639      59.634936      58.992169      58.992169     -0.14312118    -0.042048992   -0.1604042     -0.032485988    0.10353879    -0.033585695    1081.907       276330.15    
    160000   160            1.0004828     -0.13246656     7.5908067      1.5007175      10.392928      9.0915242     -2.8021212      1439.0711      59.646771      58.982906      58.982906     -0.19450844     0.024930535   -0.22782178     0.05015588     0.015324687   -0.07413844     1109.5782      276284.98    
    164000   164            0.99739036    -0.016897382    7.5925878      1.4960789      10.396538      9.0886667     -2.8039506      2136.2424      59.658605      58.981834      58.981834     -0.045488822    0.071350861   -0.076554185   -0.10095423     0.043110672   -0.03051767     1137.2602      276243.28    
    168000   168            0.99941104     0.066463109    7.5932378      1.4991099      10.396778      9.0923477     -2.8035406      1354.0683      59.67044       58.970948      58.970948     -0.075114209    0.10032535     0.17417819    -0.0039036651  -0.017280296   -0.019905315    1165.1363      276248.26    
    172000   172            1.0012885     -0.024929029    7.589062       1.5019262      10.394083      9.0909881     -2.8050213      1708.8287      59.682275      58.955363      58.955363     -0.1242514      0.10566098    -0.056196668    0.038747297    0.050282302   -0.063974904    1192.9888      276246.26    
    176000   176            0.9986414      0.049496419    7.5888586      1.4979555      10.39586       9.0868141     -2.8070013      2702.2976      59.694109      58.945197      58.945197     -0.041722385    0.090127318    0.10008432    -0.016180936    0.051381888   -0.088553938    1220.5979      276188.01    
    180000   180            0.99943863    -0.18110649     7.5934846      1.4991513      10.39442       9.0926359     -2.8009355      1437.0404      59.705944      58.960614      58.960614     -0.2704599     -0.10341207    -0.16944752    -0.023142687    0.064577695   -0.11726597     1248.4054      276175.01    
    184000   184            1.0017808     -0.086674358    7.5895355      1.5026645      10.392537      9.0922        -2.8030017      1584.468       59.717779      58.964665      58.964665     -0.26439428     0.062729514   -0.058358303    0.07287525    -0.037195855   -0.0064362563   1276.3317      276187.08    
    188000   188            0.9970151      0.06621656     7.5926847      1.495516       10.394337      9.0882007     -2.8016523      2539.1202      59.729613      58.9453        58.9453        0.046398343    0.1241215      0.028129834    0.017546566   -0.06323916     0.0043078841   1304.4111      276229.87    
    192000   192            1.0028969     -0.089856934    7.5894068      1.5043387      10.391581      9.0937455     -2.8021746      1334.6526      59.741448      58.959613      58.959613     -0.24748611    -0.023123697    0.0010390082  -0.028726449   -0.060239324    0.098473977    1332.288       276227.71    
    196000   196            1.0009788     -0.16611007     7.5937604      1.5014616      10.395406      9.0952219     -2.8016454      1053.7716      59.753283      58.957074      58.957074     -0.30852422    -0.01832642    -0.17147956     0.027506714    0.012918904   -0.035461058    1360.1588      276223.26    
    200000   200            0.99645157     0.035147965    7.5911881      1.4946707      10.394373      9.0858589     -2.8031853      3218.9967      59.765117      58.926682      58.926682     -0.095719869    0.16989223     0.031271532    0.035241033   -0.031592006    0.094747933    1388.0544      276222.83    
    204000   204            0.99921751     0.032369745    7.5908695      1.4988196      10.393454      9.0896891     -2.8025844      2402.8085      59.776952      58.934941      58.934941     -0.028569967    0.012861915    0.11281729    -0.11863269    -0.023724929   -0.06787038     1416.2423      276278.33    
    208000   208            1.0013204     -0.083680149    7.5926183      1.5019739      10.393737      9.0945922     -2.8011186      1346.0793      59.788787      58.935555      58.935555     -0.096011855   -0.0075728292  -0.14745576     0.049426408    0.078154548    0.022692381    1444.1167      276270.62    
    212000   212            1.0018176     -0.026889237    7.5898985      1.5027197      10.39418       9.0926182     -2.8042812      1841.7908      59.800621      58.903874      58.903874     -0.016477332    0.052364856   -0.11655523     0.013932267   -0.063674103    0.031218987    1472.426       276343.8     
    216000   216            0.99752736    -0.0098738462   7.5931798      1.4962844      10.395394      9.0894642     -2.8022145      2605.6522      59.812456      58.906951      58.906951     -0.039745031    0.061909953   -0.051786461   -0.050384301    0.037941123    0.024243262    1500.0232      276282.05    
    220000   220            1.0010234     -0.032264059    7.5982051      1.5015285      10.394389      9.0997336     -2.7961837      335.53239      59.824291      58.936543      58.936543     -0.15411338     0.058295196   -0.00097399    -0.019522254    0.049362178    0.025990652    1527.8829      276269       
    224000   224            0.99950062    -0.21732529     7.5940432      1.4992443      10.396009      9.0932875     -2.8019655      1842.4174      59.836125      58.896368      58.896368     -0.32495431    -0.18426379    -0.14275778     0.07566393     0.074944425    0.025251327    1555.7044      276248.65    
    228000   228            0.99984996     0.0041935193   7.5910742      1.4997683      10.393276      9.0908425     -2.8022017      2444.4566      59.84796       58.887142      58.887142     -0.082896178    0.066391444    0.029085292    0.090509379    0.0037106053  -0.057490841    1583.8647      276287.14    
    232000   232            1.0028605     -0.035831947    7.5951353      1.504284       10.395421      9.0994194     -2.8002862      556.27675      59.859795      58.892418      58.892418     -0.087826751   -0.061291364    0.041622274   -0.012516266   -0.064082593    0.058277311    1611.3951      276215.36    
    236000   236            0.99891493    -0.19112954     7.5970429      1.4983658      10.394371      9.0954086     -2.7973277      1513.9994      59.87163       58.908076      58.908076     -0.24601515    -0.12892603    -0.19844744     0.11892894    -0.0082266211   0.06630839     1639.3525      276217.01    
    240000   240            1.0008985     -0.021185685    7.5913656      1.5013411      10.393496      9.0927068     -2.8021302      2173.1959      59.883464      58.874237      58.874237      0.059413158   -0.08515313    -0.037817084   -0.0050242     -0.058583471   -0.050523966    1667.2452      276206.96    
    244000   244            1.0005193      0.064957655    7.5886675      1.5007723      10.393132      9.0894399     -2.8044643      2961.5439      59.895299      58.86172       58.86172       0.022983607    0.17119378     0.00069558026 -0.0058591857  -0.0058593185  -0.084641243    1695.2792      276219.35    
    248000   248            0.99760211     0.017133873    7.5919685      1.4963965      10.393722      9.088365      -2.8017533      3255.0768      59.907134      58.868674      58.868674     -0.083413827    0.15954064    -0.024725191    0.0015967224  -0.16534642    -0.055172373    1723.7378      276298.48    
    252000   252            0.99987458    -0.055678425    7.5973224      1.4998052      10.396264      9.0971277     -2.7989414      1327.1324      59.918968      58.876343      58.876343     -0.090664181    0.022617661   -0.098988754    0.060390245    0.027345001   -0.020576456    1751.764       276306.02    
    256000   256            0.99933723    -0.08552105     7.5939771      1.4989992      10.395129      9.0929763     -2.8011515      2316.0544      59.930803      58.862676      58.862676     -0.2114418      0.039025071   -0.084146419    0.011318777   -0.019706877   -0.025294346    1780.0202      276348.14    
    260000   260            0.99944131    -0.14253535     7.5898981      1.4991553      10.395327      9.0890534     -2.8054287      3253.2329      59.942638      58.83359       58.83359      -0.40744916     0.002077777   -0.022234678   -0.05935258    -0.022939412   -0.0053732432   1807.9362      276336.09    
    264000   264            0.99631285    -0.10225081     7.5990083      1.4944627      10.399187      9.0934709     -2.8001789      2308.0326      59.954472      58.844305      58.844305     -0.37693439     0.036655783    0.033526194   -0.12838372     0.038290398   -0.050026849    1836.0416      276352.08    
    268000   268            1.0005017     -0.020480858    7.594276       1.5007459      10.393784      9.0950219     -2.7995082      2006.2321      59.966307      58.868656      58.868656      0.030661084    0.023424939   -0.1155286      0.0299051      0.03298748     0.15974118     1863.7526      276308.28    
    272000   272            1.0010034     -0.21323773     7.5927449      1.5014985      10.391663      9.0942434     -2.7989177      2233.2604      59.978142      58.837945      58.837945     -0.40137274    -0.089819649   -0.14852081    -0.0020804824  -0.055218997    0.018003812    1891.8241      276317.6     
    276000   276            0.99718013    -0.21983588     7.5888232      1.4957636      10.394271      9.0845868     -2.8054476      4464.0111      59.989976      58.824361      58.824361     -0.29547432    -0.15640931    -0.20762399     0.049263196   -0.094857427    0.15680576     1919.4546      276262.36    
    280000   280            1.0007354     -0.034872662    7.5927561      1.5010965      10.39322       9.0938526     -2.8004643      2420.6599      60.001811      58.826137      58.826137     -0.11333427     0.016456028   -0.0077397447   0.031046046    0.018624748    0.020026508    1947.2803      276235.62    
    284000   284            1.002308      -0.15289111     7.5956468      1.5034553      10.394498      9.0991021     -2.7988515      1287.0569      60.013646      58.830405      58.830405     -0.20319011    -0.056624142   -0.19885908     0.029350628    0.0079016795   0.046734691    1975.0874      276206.23    
    288000   288            0.9986348      0.13097078     7.5963852      1.4979456      10.395949      9.0943307     -2.7995635      2416.3151      60.02548       58.817804      58.817804      0.028833346    0.18637046     0.17770854     0.0030182058   0.14734392     0.019135324    2002.7926      276162.85    
    292000   292            0.99871078    -0.04946179     7.5932015      1.4980595      10.392327      9.0912611     -2.7991257      3158.4194      60.037315      58.813709      58.813709     -0.21956049     0.019581468    0.051593647   -0.011553618   -0.035332789   -0.086800565    2030.4191      276109.18    
    296000   296            1.000369       0.026218129    7.5997314      1.5005468      10.396942      9.1002783     -2.7972109      1173.3051      60.04915       58.818352      58.818352     -0.0088414359   0.042319331    0.045176491    0.007651697    0.0073456039   0.033305651    2058.0697      276059.45    
    300000   300            0.99929392    -0.03803873     7.5968451      1.4989342      10.394067      9.0957793     -2.7972223      2239.442       60.060984      58.815999      58.815999     -0.08798903    -0.052764782    0.026637623   -0.03218315    -0.061767017   -0.013729266    2086.0971      276060.18    
    304000   304            0.99839988    -0.01186236     7.5942143      1.4975932      10.39368       9.0918075     -2.7994662      3186.5632      60.072819      58.799473      58.799473     -0.1540153      0.16183653    -0.043408313   -0.028668876    0.013801968    0.040323798    2113.8829      276028.61    
    308000   308            1.0038043     -0.087658167    7.5938145      1.5056998      10.39072       9.0995143     -2.7969055      1493.9874      60.084654      58.800449      58.800449     -0.13792807    -0.11038397    -0.014662467   -0.046931597   -0.0085241913  -0.030736514    2141.9719      276036.19    
    312000   312            0.99943335    -0.18034593     7.5974143      1.4991434      10.394136      9.0965577     -2.7967212      2214.8265      60.096488      58.797224      58.797224     -0.2559917     -0.047205999   -0.23784011     0.01731117    -0.051875699   -0.092069302    2169.5338      275975.82    
    316000   316            0.99947508     0.077180237    7.5923436      1.499206       10.391632      9.0915496     -2.7992881      3395.5288      60.108323      58.772107      58.772107     -0.055175107    0.17118417     0.11553165    -0.042350792   -0.05516627    -0.1107004      2197.153       275923.48    
    320000   320            1.0014779      0.040004927    7.5979096      1.5022102      10.393749      9.1001197     -2.795839       1511.2438      60.120158      58.795336      58.795336     -0.069757638    0.078540414    0.11123201    -0.093455609   -0.14111757    -0.069973197    2224.4509      275831.91    
    324000   324            1.0006332     -0.028500178    7.5969455      1.5009432      10.39613       9.0978886     -2.7991841      2065.6035      60.131992      58.773655      58.773655     -0.20961392     0.070976083    0.053137306   -0.025639585    0.0038866328  -0.039592195    2252.1987      275797.03    
    328000   328            0.99848282    -0.0096880849   7.5944541      1.4977176      10.392286      9.0921717     -2.7978315      3408.6357      60.143827      58.772239      58.772239     -0.19518938     0.073539302    0.092585828    0.039892965   -0.072620995   -0.030692203    2279.5704      275716.83    
    332000   332            1.0003582     -0.12328695     7.6002063      1.5005307      10.395649      9.100737      -2.7954427      1524.7258      60.155662      58.772154      58.772154     -0.19176612     0.030324194   -0.20841893    -0.031354125   -0.042030482    0.077622602    2307.1656      275664.6     
    336000   336            1.0009344     -0.011313682    7.601006       1.501395       10.399736      9.102401      -2.7987295      1199.8749      60.167496      58.755386      58.755386     -0.07342459     0.060213289   -0.020729744    0.0099882363   0.089278509   -0.040433205    2334.8253      275620.57    
    340000   340            0.9984624     -0.091075745    7.5969668      1.497687       10.39378       9.0946537     -2.7968137      2998.885       60.179331      58.758155      58.758155     -0.15189938    -0.031523504   -0.089804349    0.029260212    0.0048501511   0.020826345    2362.5511      275584.63    
    344000   344            1.0010371     -0.16897713     7.5893943      1.501549       10.389847      9.0909433     -2.8004531      3885.2961      60.191166      58.745952      58.745952     -0.15569597    -0.19462545    -0.15660997     0.050381757    0.00049388596  0.017076541    2390.4056      275563.73    
    348000   348            0.99870808    -0.0025902995   7.594856       1.4980555      10.393929      9.0929115     -2.7990733      3493.4122      60.203         58.738815      58.738815     -0.10414408     0.095937205    0.00043597428  0.075786029    0.02563375     0.14953667     2417.925       275504.49    
    352000   352            1.0030566      0.095949991    7.5945315      1.5045782      10.391832      9.0991097     -2.7973007      2141.559       60.214835      58.738563      58.738563     -0.15256219     0.31569063     0.12472154    -0.044361815    0.029167324    0.013795003    2445.5711      275460.24    
    356000   356            0.99729165    -0.16601375     7.5972831      1.4959309      10.392809      9.0932139     -2.7955262      3525.6211      60.22667       58.732201      58.732201     -0.086085627   -0.13736885    -0.27458678     0.066535212   -0.034441708    0.04640787     2473.3534      275431.52    
    360000   360            0.99830572    -0.035123506    7.5952437      1.4974519      10.393668      9.0926957     -2.7984247      3693.1799      60.238504      58.727087      58.727087     -0.13117758     0.11727621    -0.091469149    0.028085157   -0.0095052792   0.022597409    2501.1163      275400.7     
    364000   364            0.99891091     0.053496174    7.602427       1.4983597      10.396008      9.1007868     -2.7935808      1917.6479      60.250339      58.737855      58.737855      0.06194851     0.15442123    -0.055881216   -0.072409096   -0.011239835   -0.009780945    2528.7577      275356.71    
    368000   368            0.99938142    -0.11051455     7.5960355      1.4990655      10.39604       9.095101      -2.8000045      3252.7097      60.262174      58.697146      58.697146     -0.18835404    -0.042092325   -0.10109729    -0.031955253   -0.0062951919  -0.060451684    2556.6432      275339.36    
    372000   372            0.99814316     0.07328929     7.595437       1.4972081      10.392889      9.0926451     -2.797452       3858.6083      60.274009      58.713976      58.713976      0.022222593    0.071642306    0.12600297     0.011180552   -0.013879513   -0.10352816     2584.0155      275267.11    
    376000   376            1.0007115     -0.051912931    7.596402       1.5010606      10.395795      9.0974626     -2.7993929      2820.805       60.285843      58.696023      58.696023     -0.14902562    -0.006476969   -0.00023620689 -0.15887916     0.04799755    -0.081337319    2611.7452      275233.49    
    380000   380            0.9988917     -0.11813243     7.5987883      1.4983309      10.397181      9.0971192     -2.7983926      2950.85        60.297678      58.688699      58.688699     -0.37330122     0.052260315   -0.033356386   -0.035464339   -0.011883316    0.038591807    2639.4072      275192.93    
    384000   384            0.99858259    -0.10870143     7.5959824      1.4978673      10.391838      9.0938497     -2.795856       3738.5899      60.309513      58.700121      58.700121     -0.32566477     0.0011695486  -0.001609072   -0.0041840527  -0.088991513   -0.012847716    2667.3735      275184.04    
    388000   388            1.0004208     -0.046016225    7.597067       1.5006246      10.395032      9.0976916     -2.7979649      2924.3884      60.321347      58.67163       58.67163      -0.13506448     0.055816265   -0.058800456   -0.046597718    0.048339731    0.022716721    2695.0114      275141.22    
    392000   392            1.0004162     -0.025241976    7.6000424      1.5006176      10.393909      9.1006601     -2.7938666      2302.3124      60.333182      58.698535      58.698535     -0.16627427     0.010185587    0.080362756   -0.053958996    0.027840737   -0.063043185    2722.6586      275099.65    
    396000   396            0.99927737    -0.048117135    7.5923475      1.4989094      10.390014      9.0912569     -2.7976663      4478.5667      60.345017      58.687555      58.687555     -0.10653072    -0.023640891   -0.014179791    0.043214334    0.059822049    0.017523151    2750.5431      275082.1     
    400000   400            0.99905517    -0.055500733    7.5975033      1.4985761      10.393892      9.0960794     -2.7963885      3439.6007      60.356851      58.673316      58.673316     -0.17055071     0.039531308   -0.0354828     -0.054611626   -0.031970362   -0.0068273384   2777.9379      275015.85    
    404000   404            1.0025116     -0.097380661    7.5945461      1.5037607      10.391422      9.0983068     -2.7968759      2988.0293      60.368686      58.661853      58.661853     -0.26943969     0.0039526051  -0.0266549      0.051613482    0.02699384     0.019649238    2805.9418      275010.08    
    408000   408            0.99949655    -0.14038316     7.5917582      1.4992382      10.390802      9.0909964     -2.7990442      4690.2504      60.380521      58.662019      58.662019     -0.27968492    -0.040190077   -0.10127447    -0.052825307   -0.029813539   -0.04238815     2833.8511      274994.69    
    412000   412            1.000242      -0.0069271688   7.59256        1.5003564      10.39008       9.0929163     -2.7975197      4308.5375      60.392355      58.660486      58.660486     -0.16247524     0.13357008     0.0081236586  -0.073928429    0.056885611    0.0093036407   2861.9852      275000.65    
    416000   416            0.99863747    -0.025763119    7.5999396      1.4979496      10.394913      9.0978891     -2.7949736      3238.2926      60.40419       58.672586      58.672586     -0.32474988     0.22780665     0.01965388     0.023043764   -0.15908875     0.076186062    2889.432       274940.56    
    420000   420            1.0000411      0.0019545093   7.6005236      1.5000549      10.396284      9.1005785     -2.7957604      2682.7375      60.416025      58.650641      58.650641     -0.16519959     0.11823282     0.052830297    0.0014768019   0.018364031    0.030155959    2917.6165      274950.62    
    424000   424            0.99812219    -0.055378594    7.5953093      1.4971767      10.392079      9.0924859     -2.79677        4561.585       60.427859      58.637687      58.637687     -0.30670228     0.10504524     0.035521259   -0.042032657   -0.043316581    0.032783777    2944.9542      274880.91    
    428000   428            0.99764959    -0.14164059     7.6012218      1.4964678      10.394909      9.0976895     -2.7936868      3438.3958      60.439694      58.660311      58.660311     -0.22840305     0.013663331   -0.21018204     0.024410315    0.042720403    0.039737707    2972.868       274865.26    
    432000   432            0.99859694    -0.18425725     7.600237       1.4978888      10.394932      9.0981258     -2.7946947      3392.9427      60.451529      58.642644      58.642644     -0.24924887    -0.18462682    -0.11889607    -0.057893177   -0.039442451   -0.036270477    3000.5082      274824.32    
    436000   436            0.99790737     0.039255383    7.5982359      1.4968544      10.395226      9.0950903     -2.79699        4130.2666      60.463363      58.617348      58.617348     -0.045193982    0.079825642    0.083134489    0.015325203   -0.0058764942  -0.012905199    3028.2812      274795.68    
    440000   440            0.99935003    -0.12456949     7.5940426      1.4990184      10.392805      9.093061      -2.7987621      4638.3411      60.475198      58.609736      58.609736     -0.23352671    -0.034618094   -0.10556365     0.0099606997   0.056494832   -0.067806141    3055.5628      274722.87    
    444000   444            0.99905047    -0.025936181    7.6032344      1.4985691      10.400496      9.1018034     -2.7972619      2717.0909      60.487033      58.613791      58.613791     -0.26089514     0.12131056     0.061776039   -0.070017597    0.10836924    -0.012847383    3082.8414      274650.62    
    448000   448            1.0013523      0.016319941    7.5985863      1.5020219      10.393639      9.1006082     -2.7950528      3036.522       60.498867      58.605954      58.605954     -0.087429853    0.083213987    0.05317569     0.065931673   -0.027566365    0.088199653    3110.4808      274611.02    
    452000   452            0.99913102    -0.050620147    7.5945338      1.4986899      10.392567      9.0932237     -2.7980336      4755.2998      60.510702      58.590612      58.590612     -0.30176716     0.096095369    0.053811348   -0.008422009    0.05041972    -0.002906712    3138.4649      274601.79    
    456000   456            0.99925947    -0.21851252     7.6020575      1.4988826      10.39491       9.1009401     -2.792852       3065.477       60.522537      58.616857      58.616857     -0.25117711    -0.23806382    -0.16629662     0.012920731    0.030883179   -0.015100241    3166.1867      274569.49    
    460000   460            0.99990044    -0.041827794    7.6010727      1.499844       10.393682      9.1009167     -2.7926098      3121.6672      60.534371      58.607017      58.607017     -0.22511638     0.026151564    0.073481428    0.058591386   -0.092962558    0.036247938    3193.6586      274515.78    
    464000   464            0.99648766    -0.052962274    7.5977708      1.4947249      10.394084      9.0924957     -2.7963131      5076.1489      60.546206      58.587448      58.587448     -0.19047532     0.011187225    0.020401278   -0.033691102   -0.025610963    0.022566498    3221.495       274493.59    
    468000   468            0.99877417    -0.14506551     7.5988831      1.4981546      10.393519      9.0970377     -2.7946361      4101.0876      60.558041      58.597503      58.597503     -0.29716773    -0.06070509    -0.077323702   -0.030029631   -0.069553883   -0.023695025    3249.2244      274462.26    
    472000   472            0.99818737    -0.024248556    7.6041403      1.4972744      10.395752      9.1014147     -2.7916113      3165.8294      60.569875      58.600997      58.600997     -0.16105484     0.0081286454   0.080180525   -0.021703613    0.004718333   -0.15922562     3276.9732      274432.62    
    476000   476            0.99923901     0.047843676    7.5976494      1.4988519      10.394551      9.0965012     -2.7969021      4326.0412      60.58171       58.565721      58.565721     -0.075066958    0.24681659    -0.0282186      0.074061933   -0.0030478106  -0.030797782    3304.3743      274374.14    
    480000   480            0.99753225     0.085909332    7.5996552      1.4962918      10.395858      9.0959469     -2.7962026      4504.3605      60.593545      58.568917      58.568917     -0.14465969     0.11385313     0.28853455     0.047590597   -0.058301718   -0.020042965    3331.9472      274330.32    
    484000   484            1.0000336     -0.17162884     7.6009486      1.5000437      10.394298      9.1009923     -2.7933494      3414.8944      60.605379      58.567844      58.567844     -0.31016934    -0.093664741   -0.11105243     0.019296887   -0.03240339    -0.14413755     3359.6631      274298.45    
    488000   488            1.0000527     -0.0071396527   7.5984407      1.5000724      10.395645      9.0985131     -2.7972042      4028.8472      60.617214      58.540385      58.540385     -0.016284357    0.040699268   -0.045833869   -0.05741856    -0.12155942    -0.082819809    3387.3504      274264.32    
    492000   492            0.99703779     0.11709722     7.5948081      1.4955501      10.392923      9.0903582     -2.7981145      5920.5131      60.629049      58.541626      58.541626      0.16168257     0.11294442     0.076664682    0.072827486    0.1147573      0.039275871    3415.1028      274235.53    
    496000   496            1.0000685     -0.049817642    7.5977527      1.5000961      10.391028      9.0978488     -2.7932749      4279.2452      60.640883      58.550585      58.550585     -0.19955954     0.011452007    0.038654604    0.0063023293   0.023867693   -0.0162919      3442.8689      274207.85    
    500000   500            0.99791578    -0.16449863     7.6037874      1.496867       10.396495      9.1006544     -2.7927076      3698.4652      60.652718      58.547603      58.547603     -0.24356196    -0.1226518     -0.12728214     0.069393702    0.0039257796  -0.055770607    3470.7768      274191.37    
    504000   504            0.99678929    -0.094637627    7.5971572      1.4951773      10.393406      9.0923345     -2.7962487      5629.2151      60.664553      58.521413      58.521413     -0.28173488     0.060068723   -0.062246723    0.1372089      0.0062731244  -0.060186546    3498.5004      274160.26    
    508000   508            1.0002364     -0.047085136    7.602004       1.500348       10.395246      9.102352      -2.7932415      3418.455       60.676388      58.547625      58.547625     -0.21912245    -0.0036811854   0.081548226   -0.061632605    0.029376327   -0.04115731     3526.0474      274115.48    
    512000   512            1.0022792     -0.14972809     7.5979559      1.5034121      10.39316       9.101368      -2.7952037      3690.3467      60.688222      58.529762      58.529762     -0.33255271    -0.056065061   -0.060566516    0.028494753    0.081091073   -0.025216021    3553.7211      274080.74    
    516000   516            0.99820544    -0.14904323     7.5983594      1.4973015      10.393935      9.095661      -2.7955755      5032.1978      60.700057      58.514767      58.514767     -0.2643843     -0.05803254    -0.12471285     0.056169408    0.076076129   -0.0054696813   3581.6846      274068.29    
    520000   520            1.0005344     -0.15045172     7.6033648      1.5007949      10.397547      9.1041597     -2.7941819      3164.7531      60.711892      58.528605      58.528605     -0.2581008     -0.015123423   -0.17813093     0.059819565    0.016409611    0.024094585    3609.1158      274015.18    
    524000   524            1.0004766     -0.1136855      7.599889       1.5007082      10.396076      9.1005972     -2.7961875      4020.2093      60.723726      58.498983      58.498983     -0.28086074     0.0090263723  -0.069222138    0.1318035     -0.095979795   -0.0020221305   3637.1159      274005.32    
    528000   528            0.99757257    -0.001102497    7.599461       1.4963522      10.396191      9.0958132     -2.7967297      5152.9239      60.735561      58.49318       58.49318      -0.13805752     0.21351166    -0.078761628    0.0083886274  -0.055865927   -0.076459967    3664.9662      273983.99    
    532000   532            0.99785657    -0.16054084     7.6029771      1.4967782      10.395287      9.0997553     -2.7923104      4313.5354      60.747396      58.511538      58.511538     -0.31964372    -0.010267855   -0.15171096     0.060298747   -0.058919695   -0.0039184443   3692.8862      273967.73    
    536000   536            1.000693      -0.028176569    7.6056499      1.5010328      10.398769      9.1066828     -2.7931193      2799.6591      60.75923       58.490362      58.490362     -0.13155746     0.12941553    -0.082387785    0.029730298    0.0041291441  -0.028679911    3720.5072      273929.28    
    540000   540            1.0029152     -0.22217891     7.6025533      1.5043662      10.397419      9.1069195     -2.794866       2798.2298      60.771065      58.476838      58.476838     -0.31733147    -0.1477225     -0.20148275     0.006258276   -0.062930059   -0.01927148     3748.3051      273903.92    
    544000   544            0.99877078    -0.14159539     7.6024738      1.4981495      10.396389      9.1006233     -2.7939154      4272.1104      60.7829        58.475441      58.475441     -0.29535148    -0.0058410955  -0.12359359     0.030050846   -0.017946401   -0.032005795    3776.2626      273890.11    
    548000   548            0.9986239     -0.063354986    7.6050589      1.4979292      10.39556       9.1029881     -2.7905014      3788.8576      60.794734      58.490302      58.490302     -0.18312455    -0.066728017    0.05978761    -0.065258526    0.089701501   -0.073916217    3803.9284      273855.08    
    552000   552            1.002307      -0.088217993    7.6049888      1.5034538      10.395402      9.1084426     -2.7904129      2606.73        60.806569      58.487409      58.487409     -0.23695376     0.078281957   -0.10598218     0.031392564   -0.0010442431  -0.037978378    3831.9956      273848.85    
    556000   556            0.99664435    -0.083773783    7.6038846      1.4949599      10.394499      9.0988445     -2.7906143      4826.3565      60.818404      58.487722      58.487722     -0.31823719     0.12301643    -0.056100588    0.0075154639  -0.1144913     -0.041040643    3859.7938      273823.22    
    560000   560            1.0015379      0.013441972    7.6011016      1.5023002      10.394045      9.1034018     -2.7929432      3848.5191      60.830238      58.475836      58.475836     -0.10104702     0.1102882      0.031084731   -0.011933771    0.053596972    0.012250467    3887.845       273815.37    
    564000   564            1.0027379     -0.10983739     7.6095345      1.5041002      10.398852      9.1136347     -2.7893175      1589.1758      60.842073      58.475794      58.475794     -0.15298784    -0.095053606   -0.081470723   -0.038969281    0.037719471    0.0066815139   3915.3395      273768.31    
    568000   568            1.0002789     -0.0094017998   7.6038975      1.5004118      10.397583      9.1043093     -2.7936859      3746.4363      60.853908      58.437008      58.437008     -0.16913462     0.043080523    0.0978487     -0.042678255   -0.047704399   -0.050164653    3943.2063      273747.38    
    572000   572            0.99599749    -0.15167194     7.6060706      1.4939896      10.396769      9.1000602     -2.7906981      4757.6097      60.865742      58.447016      58.447016     -0.24475638    -0.045808252   -0.16445118     0.046655723    0.01143669    -0.09798633     3970.8702      273712.36    
    576000   576            1.0005402     -0.099229669    7.6036839      1.5008037      10.392932      9.1044876     -2.7892482      3809.6697      60.877577      58.468556      58.468556     -0.15581978     0.01511927    -0.15698849     0.17247852     0.025490898   -0.0010029612   3998.5661      273679.64    
    580000   580            1.0004265     -0.17343543     7.6074716      1.5006332      10.398068      9.1081048     -2.790596       3045.1952      60.889412      58.456714      58.456714     -0.28075557    -0.13265983    -0.10689088     0.0047665831  -0.040289836   -0.032665998    4026.167       273640.52    
    584000   584            0.99819084    -0.10187249     7.600821       1.4972796      10.395086      9.0981007     -2.7942652      5355.3485      60.901246      58.425793      58.425793     -0.28805417    -0.023792221    0.0062289368  -0.0010805998   0.01399854     0.063759572    4053.7603      273601.06    
    588000   588            1.000562      -0.020614244    7.6038911      1.5008364      10.397275      9.1047275     -2.7933836      3910.5749      60.913081      58.425858      58.425858     -0.14022805    -0.027800562    0.10618588    -0.072373157   -0.083118218   -0.022892112    4081.4717      273569.66    
    592000   592            1.0007219      0.040137198    7.5991375      1.5010762      10.394916      9.1002137     -2.7957785      4981.6158      60.924916      58.407265      58.407265     -0.047651629    0.16146342     0.0065998014   0.002635309   -0.042307267   -0.079622609    4109.2027      273539.63    
    596000   596            0.99978544    -0.080772553    7.6001012      1.4996715      10.394078      9.0997727     -2.7939772      5133.3248      60.93675       58.411837      58.411837     -0.13802455     0.028582416   -0.13287552     0.026060651   -0.07661512    -0.066293963    4137.7347      273562.58    
    600000   600            1.0007853     -0.17475796     7.6024735      1.5011714      10.395943      9.1036449     -2.7934698      4310.5998      60.948585      58.413604      58.413604     -0.33869777    -0.1489759     -0.036600219   -0.0014460619   0.075386893    0.018337012    4166.062       273571.41    
    604000   604            0.99944774    -0.18174508     7.5960839      1.499165       10.391854      9.0952488     -2.7957704      6258.6557      60.96042       58.402706      58.402706     -0.32092133    -0.11016847    -0.11414544    -0.18618472     0.076233083   -0.048047814    4194.0119      273555.12    
    608000   608            0.9993738      0.034712569    7.6028622      1.4990541      10.396555      9.1019163     -2.7936929      4805.4104      60.972254      58.396822      58.396822     -0.24941139     0.20921993     0.14432917     0.048543322   -0.068735403   -0.039503922    4221.8873      273533.86    
    612000   612            1.0015994     -0.074068988    7.6001118      1.5023925      10.393597      9.1025042     -2.7934853      4721.9298      60.984089      58.389959      58.389959     -0.16775613    -0.09456603     0.040115195    0.066518224    0.015251012   -0.075766041    4249.7503      273511.71    
    616000   616            0.99856016    -0.10397681     7.6013616      1.4978336      10.3958        9.0991952     -2.7944381      5522.5455      60.995924      58.394511      58.394511     -0.21537707     0.015072379   -0.11162574     0.064997006    0.0054852362  -0.1381988      4277.3731      273474.13    
    620000   620            0.99740431    -0.1035647      7.5987442      1.4960998      10.393028      9.094844      -2.7942836      6556.1416      61.007758      58.375377      58.375377     -0.28977118     0.053746065   -0.074668979    0.013642257   -0.027585294   -0.0025869063   4305.4152      273463.31    
    624000   624            0.99825936     0.0062233094   7.6052487      1.4973824      10.396971      9.1026311     -2.7917224      4849.6984      61.019593      58.384775      58.384775     -0.23643223     0.22640573     0.028696431    0.088009087   -0.020431396   -0.011370126    4333.3432      273445.07    
    628000   628            0.99924411    -0.015819131    7.602725       1.4988595      10.393829      9.1015845     -2.7911038      5137.1704      61.031428      58.381593      58.381593     -0.15663988     0.0022347755   0.10694771    -0.016416936    0.035243161   -0.090640634    4361.5153      273442       
    632000   632            0.99898257    -0.17823644     7.5997468      1.4984672      10.39356       9.0982141     -2.7938129      5951.1745      61.043263      58.374885      58.374885     -0.28395015    -0.081153281   -0.16960588     0.090274891    0.069152535   -0.10521481     4389.3226      273415.9     
    636000   636            1.0014233     -0.013825282    7.6038345      1.5021283      10.397237      9.1059628     -2.7934025      4252.9385      61.055097      58.363691      58.363691     -0.15713086     0.12571095    -0.010055939   -0.03630701     0.088472701   -0.066650735    4417.5374      273415       
    640000   640            0.99957161     0.12376407     7.6046076      1.4993508      10.39673       9.1039584     -2.792122       4757.6638      61.066932      58.348835      58.348835     -0.080414681    0.28268291     0.169024       0.011136174    0.030489913    0.028911277    4445.3241      273387.43    
    644000   644            0.9985737     -0.0049732063   7.6003897      1.4978539      10.390991      9.0982436     -2.7906013      6097.9779      61.078767      58.352441      58.352441     -0.26754137     0.16823517     0.084386578    0.042088796    0.041003965    0.091673644    4473.2379      273367.62    
    648000   648            0.99868567    -0.2235336      7.6080974      1.4980219      10.400668      9.1061193     -2.7925707      4374.9667      61.090601      58.338117      58.338117     -0.18610144    -0.28374408    -0.2007553      0.040367722    0.059993791    0.04627285     4501.48        273367.66    
    652000   652            0.99884068    -0.084505734    7.6017391      1.4982544      10.394359      9.0999935     -2.7926203      5807.9077      61.102436      58.330388      58.330388     -0.24053017    -0.037547139    0.02456011    -0.021886129    0.083036839    0.086881753    4529.0329      273325.74    
    656000   656            0.99863655    -0.057452274    7.5999047      1.4979482      10.39233       9.0978529     -2.7924254      6342.8722      61.114271      58.333671      58.333671     -0.24718467     0.023267268    0.051560578    0.011814575    0.023538836   -0.021862137    4559.3054      273447.12    
    660000   660            0.99871902    -0.040648369    7.6067047      1.4980719      10.397666      9.1047766     -2.7909611      4832.56        61.126105      58.329009      58.329009     -0.12720844     0.048599486   -0.043336157    0.079243188   -0.043316291   -0.02897295     4588.8759      273524.82    
    664000   664            0.99818797    -0.024418553    7.6001618      1.4972753      10.394         9.0974371     -2.7938382      6542.3         61.13794       58.330491      58.330491     -0.15875966     0.094518828   -0.0090148258  -0.030370323    0.053279566   -0.023162601    4616.9618      273513.27    
    668000   668            1.001567      -0.02679392     7.5981668      1.5023439      10.393888      9.1005107     -2.7957216      5899.092       61.149775      58.303107      58.303107     -0.2187686      0.13501569     0.0033711438   0.050527778    0.040929767   -0.0070558442   4645.0822      273503.55    
    672000   672            1.001456      -0.057089788    7.6029686      1.5021773      10.397079      9.1051459     -2.79411        4904.9351      61.161609      58.309098      58.309098     -0.21722856     0.015897679    0.030061514   -0.049518918    0.0052091909   0.039855846    4672.9958      273481.52    
    676000   676            0.99892068     0.0072895896   7.6020961      1.4983744      10.392357      9.1004705     -2.7902609      6013.1904      61.173444      58.307032      58.307032     -0.22131754     0.22780596     0.015380346   -0.07701282     0.1330018      0.087317289    4700.465       273433.56    
    680000   680            0.99883805    -0.17901086     7.6023593      1.4982504      10.392324      9.1006097     -2.789965       6035.0054      61.185279      58.319239      58.319239     -0.2864943     -0.14586601    -0.10467226    -0.039460964    0.012031409   -0.019953973    4728.4053      273413.08    
    684000   684            1.0005593     -0.048367672    7.6053205      1.5008323      10.394052      9.1061528     -2.7887311      4836.1083      61.197113      58.309171      58.309171     -0.2490771      0.06738846     0.036585623    0.066948713    0.053811317    0.16533101     4755.9851      273371.8     
    688000   688            0.99997197    -0.18535231     7.5997405      1.4999513      10.391648      9.0996918     -2.7919076      6348.1095      61.208948      58.297205      58.297205     -0.34654952    -0.090634184   -0.11887322     0.048465526    0.10257118    -0.064801294    4783.3571      273318.8     
    692000   692            0.99727756    -0.083006132    7.6033838      1.4959097      10.393618      9.0992935     -2.7902343      6492.4188      61.220783      58.283961      58.283961     -0.26529185     0.049856261   -0.033582803   -0.082470396    0.040312155    0.006651327    4811.0803      273286.04    
    696000   696            1.0014624      0.022784827    7.6051827      1.5021869      10.393462      9.1073696     -2.7882789      4718.9252      61.232617      58.293572      58.293572     -0.13467565     0.10336095     0.099669181   -0.019519323    0.030334049   -0.018192045    4838.7728      273251.62    
    700000   700            0.99835025    -0.069051022    7.6068757      1.4975187      10.398354      9.1043945     -2.7914785      5445.3626      61.244452      58.274225      58.274225     -0.16028492    -0.014021199   -0.03284695     0.014444185    0.058924355    0.037412224    4866.3329      273209.83    
    704000   704            0.99796108    -0.11715921     7.6018287      1.496935       10.391124      9.0987637     -2.7892955      6767.6489      61.256287      58.284159      58.284159     -0.23376324    -0.094509405   -0.02320499    -0.029129416    0.1038313      0.087051963    4894.2196      273186.44    
    708000   708            1.0014387     -0.065190225    7.6056974      1.5021514      10.395634      9.1078488     -2.7899364      4768.908       61.268121      58.282596      58.282596     -0.16264369    -0.066930811    0.03400382    -0.023839426    0.0060518424  -0.03429824     4922.4723      273183.31    
    712000   712            0.99977226    -0.16359425     7.6041631      1.4996518      10.394338      9.1038148     -2.7901749      5732.314       61.279956      58.264697      58.264697     -0.38298651    -0.0031271439  -0.10466909    -0.025113542    0.063247909    0.036166181    4950.5205      273168.61    
    716000   716            0.99881875    -0.008805537    7.6034622      1.4982215      10.393642      9.1016837     -2.7901797      6266.301       61.291791      58.266444      58.266444     -0.16398545     0.1463921     -0.0088232559   0.02172773     0.044393449   -0.13761029     4978.4383      273146.6     
    720000   720            1.0033737      0.05986062     7.6055485      1.5050539      10.39791       9.1106024     -2.7923613      4305.5931      61.303625      58.243239      58.243239     -0.10390163     0.11282583     0.17065766    -0.085583382    0.028233982    0.048381909    5006.6267      273139.3     
    724000   724            1.0000861     -0.0051606481   7.6035545      1.5001225      10.393848      9.1036771     -2.7902933      5921.0988      61.31546       58.252943      58.252943     -0.1664373      0.16012459    -0.009169239    0.014890898    0.032894295   -0.11418574     5035.1378      273149.27    
    728000   728            1.000363      -0.076958347    7.6033908      1.5005379      10.394559      9.1039287     -2.7911685      5917.0517      61.327295      58.237648      58.237648     -0.30257053     0.086799754   -0.015104271   -0.01795488    -0.012780441   -0.10020343     5063.1794      273133.49    
    732000   732            1.0018474     -0.14932745     7.6039567      1.5027644      10.395166      9.1067211     -2.7912092      5340.1217      61.339129      58.233964      58.233964     -0.30994212     0.068777905   -0.20681814     0.077115868    0.082599626   -0.0205364      5091.5178      273133.5     
    736000   736            1.0019016     -0.11759        7.6098278      1.5028458      10.396348      9.1126736     -2.7865202      4049.1846      61.350964      58.249398      58.249398     -0.39225924     0.065913264   -0.026424031    0.06816036     0.087073674    0.090249672    5119.5421      273116.44    
    740000   740            1.002333      -0.15792985     7.6057699      1.5034929      10.397316      9.1092628     -2.7915459      4872.6402      61.362799      58.23377       58.23377      -0.33846183    -0.039171293   -0.096156415   -0.033610416    0.012489794    0.022951593    5147.7956      273111.43    
    744000   744            0.9987114     -0.080026488    7.6043427      1.4980605      10.394616      9.1024031     -2.7902732      6475.1802      61.374633      58.230134      58.230134     -0.22720915     0.0059556887  -0.018826006   -0.010242401   -0.086039064    0.043115126    5175.8665      273096.53    
    748000   748            0.99952517     0.0081110836   7.6081331      1.4992811      10.39643       9.1074142     -2.7882967      5396.3144      61.386468      58.234616      58.234616     -0.15279118     0.15023776     0.026886666   -0.014192578    0.042171085    0.044530489    5204.1172      273090.92    
    752000   752            1.0022196     -0.089449729    7.6076333      1.5033227      10.396623      9.110956      -2.7889899      4649.1337      61.398303      58.21572       58.21572      -0.16486174    -0.057561808   -0.045925639    0.051425843    0.075278355    0.098787595    5231.981       273064.88    
    756000   756            1.00014       -0.030373303    7.6052137      1.5002034      10.394687      9.1054171     -2.7894731      5953.313       61.410137      58.210739      58.210739     -0.19293058     0.097711678    0.0040989932  -0.036586764    0.035103318   -0.021594762    5260.3109      273063.02    
    760000   760            0.99942851     0.042296097    7.6031545      1.4991361      10.393576      9.1022907     -2.7904215      6712.369       61.421972      58.195527      58.195527     -0.12892072     0.16832608     0.087482929    0.099620278   -0.011271771    0.032976244    5288.107       273033.32    
    764000   764            0.99640014    -0.031849948    7.6008728      1.4945936      10.393395      9.0954664     -2.7925217      8307.7521      61.433807      58.184556      58.184556     -0.24494655     0.13592741     0.013469296    0.0548488      0.070978846   -0.036567155    5316.0494      273011.14    
    768000   768            0.99787157    -0.032534884    7.6090519      1.4968007      10.396312      9.1058526     -2.7872602      6015.3333      61.445642      58.215805      58.215805     -0.12927632     0.013292491    0.018379181    0.029522803   -0.083491634    0.041193368    5343.9736      272987.99    
    772000   772            0.99886762    -0.12949143     7.6104822      1.4982948      10.396512      9.108777      -2.7860294      5407.9684      61.457476      58.20754       58.20754      -0.3192472     -0.074292538    0.0050654641  -0.040464995    0.015798195   -0.10215145     5371.701       272954.78    
    776000   776            0.99915099    -0.094528178    7.6026373      1.4987199      10.392274      9.1013572     -2.7896365      7134.5226      61.469311      58.184171      58.184171     -0.23702944    -0.00082265056 -0.045732447    0.079353155   -0.067898387    0.065709385    5399.8966      272945.29    
    780000   780            1.0005018     -0.047062377    7.60763        1.500746       10.397146      9.108376      -2.7895157      5602.3074      61.481146      58.178895      58.178895     -0.073810017    0.040275285   -0.1076524     -0.041758954   -0.055725013    0.055426016    5428.1612      272939.08    
    784000   784            1.0013634     -0.10544431     7.6080448      1.5020384      10.39517       9.1100833     -2.7871256      5268.0608      61.49298       58.189717      58.189717     -0.21333822     0.012032727   -0.11502745     0.058880235    0.076911695    0.021983541    5456.5881      272940.76    
    788000   788            0.99916886    -0.070573162    7.6030206      1.4987467      10.392636      9.1017672     -2.7896159      7201.3029      61.504815      58.154181      58.154181     -0.21283812    -0.060400018    0.061518654    0.026843152    0.03831589     0.070295757    5484.5957      272921.28    
    792000   792            1.0009355     -0.10385556     7.6060598      1.5013966      10.395952      9.1074564     -2.7898921      5968.3168      61.51665       58.158303      58.158303     -0.37908406     0.073427067   -0.0059097006  -0.057366214   -0.046319118    0.064610501    5513.0275      272922.7     
    796000   796            0.99972434    -0.080467182    7.6096784      1.4995799      10.395787      9.1092583     -2.7861087      5613.7915      61.528484      58.167774      58.167774     -0.26378215     0.040611646   -0.018231041   -0.045551258   -0.014202352    0.13669862     5540.912       272896.88    
    800000   800            0.99803366    -0.068567099    7.6063409      1.4970439      10.395272      9.1033848     -2.7889309      6992.7999      61.540319      58.145207      58.145207     -0.1843033     -0.0015390339  -0.019858962    0.02827214    -0.0065348984   0.083513557    5568.9627      272879.17    
    804000   804            1.0002441      0.0031729315   7.6018841      1.5003595      10.390952      9.1022436     -2.7890674      7302.0155      61.552154      58.13343       58.13343      -0.22316981     0.13939098     0.093297624   -0.010937265    0.051489714   -0.10679321     5596.9837      272859.92    
    808000   808            1.0015485      0.024676061    7.608749       1.5023161      10.395596      9.1110652     -2.7868466      5362.2959      61.563988      58.14045       58.14045      -0.1851223      0.053936243    0.20521424     0.08421329     0.014618515    0.038249567    5625.2675      272853.32    
    812000   812            1.0014404     -0.0081475866   7.6049385      1.502154       10.391359      9.1070926     -2.7864204      6313.4031      61.575823      58.15269       58.15269      -0.15276478     0.035423988    0.092898029    0.047154896    0.0082541173   0.10079189     5653.3768      272838.09    
    816000   816            0.99703771     0.0060904967   7.6073599      1.4955499      10.394479      9.1029098     -2.7871191      7310.5432      61.587658      58.14085       58.14085      -0.091641496   -0.017309589    0.12722258     0.040978348   -0.1691169     -0.081774324    5681.7938      272837.51    
    820000   820            1.0041316     -0.0087180387   7.6034088      1.5061908      10.39121       9.1095996     -2.7878013      5850.9936      61.599492      58.111551      58.111551     -0.16680009     0.051710861    0.088935112   -0.013491493   -0.10643756    -0.011512086    5710.0297      272828       
    824000   824            1.0016443     -0.11425494     7.6044484      1.5024598      10.392301      9.1069082     -2.7878531      6511.8955      61.611327      58.117638      58.117638     -0.36986977    -0.065895961    0.093000919    0.04842121     0.023721923    0.064364794    5738.3077      272820.32    
    828000   828            0.9990749     -0.1081944      7.6004711      1.4986057      10.3918        9.0990768     -2.7913285      8334.0301      61.623162      58.11289       58.11289      -0.23683623    -0.077418461   -0.010328503    0.0088324808   0.067806801    0.0097739093   5766.2608      272797.06    
    832000   832            0.99727284    -0.098026425    7.6033501      1.4959026      10.390748      9.0992528     -2.7873983      8346.7218      61.634996      58.124144      58.124144     -0.21855613    -0.0082005651  -0.067322578   -0.043045293    0.078844436   -0.020894259    5794.2488      272775.41    
    836000   836            1.0012305     -0.038178285    7.6072744      1.5018391      10.393373      9.1091135     -2.7860984      6172.4298      61.646831      58.122047      58.122047     -0.083521303    0.018304057   -0.049317609    0.048508988   -0.069034425    0.02662953     5822.3916      272760.94    
    840000   840            1.0021512     -0.084625777    7.6078857      1.5032201      10.391812      9.1111059     -2.7839258      5774.1383      61.658666      58.111413      58.111413     -0.32173375     0.055257452    0.012598968   -0.04805526    -0.046136346   -0.020831112    5850.2056      272731.01    
[...]
  39768000   39768          0.99938598    -0.19471971     7.7384441      1.4990723      10.408065      9.2375164     -2.6696211      320508.57      176.83374      34.682827      34.682827     -0.69827329     0.045823423    0.068290743    0.035691691   -0.11409078    -0.01925019     358734.42      2092.7978    
  39772000   39772          0.99852685    -0.36833244     7.7329888      1.4977837      10.404555      9.2307725     -2.6715664      322057.97      176.84557      34.677487      34.677487     -0.83438568    -0.15530933    -0.1153023      0.032216856   -0.067197437    0.034633105    358772.26      2056.7252    
  39776000   39776          0.99988261    -0.20383148     7.7415066      1.4998173      10.410627      9.2413239     -2.6691208      319701.54      176.85741      34.671929      34.671929     -0.51857709    -0.083588229   -0.0093291068   0.037777463    0.035998277    0.075379514    358810         2020.6516    
  39780000   39780          1.0008868     -0.1549217      7.7359846      1.5013235      10.406426      9.2373081     -2.6704411      320632.51      176.86924      34.676213      34.676213     -0.65100965     0.074711541    0.111533       0.0049716996   0.023687803    0.031745757    358848.91      1984.5842    
  39784000   39784          0.9985749     -0.27830119     7.7353612      1.4978557      10.403478      9.2332169     -2.6681171      321580.87      176.88108      34.680306      34.680306     -0.75701425    -0.16018594     0.082296607    0.025040075    0.013027985    0.0018760191   358886.7       1948.5101    
  39788000   39788          1.0019681     -0.24929288     7.7389593      1.5029455      10.405418      9.2419048     -2.6664584      319644.63      176.89291      34.680958      34.680958     -0.73500355    -0.12101744     0.10814236     0.07987185    -0.066482312    0.044781197    358925.51      1912.4411    
  39792000   39792          0.99760207    -0.21641901     7.7400896      1.4963965      10.406839      9.2364861     -2.666749       320893.68      176.90475      34.683058      34.683058     -0.68789815    -0.065105849    0.10374696     0.037364786   -0.057481526    0.0740812      358963.99      1876.3699    
  39796000   39796          0.99957163    -0.18934863     7.7448981      1.4993508      10.411983      9.2442489     -2.6670844      319167.06      176.91658      34.679471      34.679471     -0.71582285    -0.041579871    0.18935682     0.0070869099  -0.090089491    0.039905969    359001.81      1840.2947    
  39800000   39800          1.0006205     -0.23434927     7.7420547      1.5009241      10.409478      9.2429788     -2.6674236      319480.18      176.92842      34.674533      34.674533     -0.77857696     0.042993578    0.03253558     0.075984076   -0.076991032    0.019718469    359040.15      1804.2218    
  39804000   39804          1.0002111     -0.21320389     7.7396953      1.50031        10.408051      9.2400053     -2.6683559      320176.48      176.94025      34.669994      34.669994     -0.68091697     0.076651264   -0.03534596     0.039290763   -0.02046409    -0.017579808    359078.39      1768.148     
  39808000   39808          1.0017436     -0.27707483     7.7347477      1.5026088      10.404678      9.2373565     -2.6699308      320798.28      176.95209      34.665799      34.665799     -0.75967209    -0.059989269   -0.011563137   -0.0065911322  -0.007701091    0.015721001    359117         1732.0756    
  39812000   39812          0.99722594    -0.33399465     7.736072       1.4958323      10.40618       9.2319043     -2.6701081      322055.93      176.96392      34.660858      34.660858     -0.91328285    -0.14346061     0.054759494    0.059818442   -0.086256095   -0.037289511    359155.68      1696.0029    
  39816000   39816          1.0002772     -0.22315387     7.7400834      1.5004092      10.408796      9.2404926     -2.6687122      320142.86      176.97576      34.660465      34.660465     -0.9013344      0.027894576    0.20397821     0.028328998    0.021645107    0.023121001    359193.84      1659.9273    
  39820000   39820          0.99818175    -0.22491065     7.739897       1.497266       10.407479      9.237163      -2.6675817      320919.8       176.98759      34.665487      34.665487     -0.77240236     0.046298723    0.051371672    0.0080663712  -0.096126539    0.053994415    359232.13      1623.8519    
  39824000   39824          0.99825455    -0.29513068     7.7327198      1.4973752      10.403951      9.230095      -2.6712312      322540.69      176.99942      34.648942      34.648942     -0.77582024    -0.12378893     0.014217124    0.062899396   -0.00573455     0.14047969     359271.09      1587.779     
  39828000   39828          0.99950658    -0.27919148     7.7391186      1.4992532      10.408327      9.2383718     -2.6692082      320697.16      177.01126      34.662756      34.662756     -0.73791802    -0.082452711   -0.017203717    0.1093129     -0.12372401     0.073163743    359309.46      1551.703     
  39832000   39832          1.0023325     -0.17220242     7.7372265      1.5034921      10.405055      9.2407186     -2.6678287      320190.86      177.02309      34.660612      34.660612     -0.76809392     0.076873075    0.17461359    -0.021919541    0.052012925   -0.069713186    359347.82      1515.6265    
  39836000   39836          0.99757317    -0.17687813     7.7374655      1.4963531      10.406464      9.2338186     -2.6689984      321775.65      177.03493      34.658742      34.658742     -0.60020755    -0.011942912    0.081516077   -0.010208396   -0.075528522    0.21501203     359386.19      1479.5495    
  39840000   39840          0.99969356    -0.37585466     7.7440933      1.4995337      10.410825      9.243627      -2.666732       319587.06      177.04676      34.66455       34.66455      -0.78794307    -0.19693506    -0.14268585     0.049636372   -0.015956011   -0.036027509    359424.25      1443.4709    
  39844000   39844          1.0016773     -0.17090322     7.7365777      1.5025093      10.405929      9.239087      -2.6693518      320636.48      177.0586       34.651182      34.651182     -0.65470265     0.10194441     0.040048586    0.048618345   -0.007083245   -0.022233659    359462.86      1407.394     
  39848000   39848          0.99978276    -0.23651567     7.7365696      1.4996675      10.40802       9.2362371     -2.67145        321307.1       177.07043      34.644581      34.644581     -0.68449105    -0.030681788    0.0056258354  -0.004866246   -0.031061826   -0.029957753    359501.49      1371.3166    
  39852000   39852          1.0008764     -0.045583451    7.7374447      1.501308       10.409051      9.2387527     -2.6716061      320762.97      177.08227      34.649413      34.649413     -0.55376209     0.18837058     0.22864116    -0.018417512    0.0436701      0.052313516    359539.47      1335.2364    
  39856000   39856          1.0014367     -0.26678926     7.7398645      1.5021485      10.410155      9.242013      -2.6702901      320052.56      177.0941       34.651152      34.651152     -0.7458884     -0.058210521    0.0037311433   0.13315626    -0.012213892    0.078418127    359578.11      1299.1582    
  39860000   39860          0.9982477     -0.38748025     7.7373364      1.4973649      10.407297      9.2347014     -2.6699608      321730.03      177.10594      34.651491      34.651491     -0.87340187    -0.13610438    -0.15293449    -0.010864119   -0.0042403824   0.014176613    359616.53      1263.0786    
  39864000   39864          1.001479      -0.23252389     7.7353665      1.5022118      10.407109      9.2375783     -2.6717423      321105.6       177.11777      34.640753      34.640753     -0.8358506      0.093191554    0.045087392    0.019498325   -0.15389387     0.061547331    359655.1       1226.9991    
  39868000   39868          1.0005668     -0.14801523     7.7421891      1.5008436      10.413684      9.2430327     -2.6714949      319901.25      177.12961      34.640793      34.640793     -0.68564972     0.038883204    0.20272082     0.001593195   -0.11427169     0.034247153    359693.8       1190.9196    
  39872000   39872          1.0013491     -0.21027386     7.7356963      1.5020169      10.408497      9.2377133     -2.6728003      321125.78      177.14144      34.63343       34.63343      -0.67022756    -0.066591659    0.10599766     0.089594171   -0.016276381   -0.042053143    359731.94      1154.8377    
  39876000   39876          0.99995254    -0.16437861     7.7331364      1.4999222      10.406375      9.2330586     -2.6732386      322201.81      177.15328      34.627572      34.627572     -0.56596119     0.080223125   -0.0073977615   0.013752674   -0.039785231    0.094218668    359770.58      1118.757     
  39880000   39880          0.99706356    -0.1214748      7.7379281      1.4955887      10.411039      9.2335168     -2.673111       322125.26      177.16511      34.63507       34.63507      -0.67292626     0.18041605     0.12808582     0.072424811   -0.0039057233  -0.0233709      359809.43      1082.6763    
  39884000   39884          1.0019718     -0.21343752     7.7378417      1.502951       10.408186      9.2407927     -2.670344       320505.7       177.17695      34.634001      34.634001     -0.61044723    -0.017079478   -0.012785844    0.015671218   -0.076675671    0.068663192    359847.33      1046.5924    
  39888000   39888          0.99866742    -0.27176725     7.736035       1.4979945      10.407493      9.2340295     -2.6714576      322059.3       177.18878      34.631912      34.631912     -0.81387126    -0.015935241    0.014504742    0.064092189   -0.040329525   -0.0098499708   359885.73      1010.5095    
  39892000   39892          0.99934238    -0.28138865     7.7354087      1.4990069      10.407584      9.2344156     -2.6721751      321997.06      177.20061      34.633242      34.633242     -0.73457833    -0.15512956     0.045541929   -0.0081077553  -0.0060761429   0.083242088    359924.42      974.42689    
  39896000   39896          1.0023477     -0.24596443     7.739868       1.5035149      10.410255      9.2433829     -2.670387       319997.44      177.21245      34.634975      34.634975     -0.54598242    -0.05551551    -0.13639536     0.049991401   -0.015751656   -0.0018464535   359962.57      938.34237    
  39900000   39900          1.0035057     -0.26664651     7.7367446      1.5052519      10.406957      9.2419965     -2.670212       320334.69      177.22428      34.635782      34.635782     -0.81707854    -0.038264571    0.055403571    0.038201874   -0.020266112    0.077020012    360001.58      902.2596     
  39904000   39904          0.9993779     -0.17879991     7.7366047      1.4990602      10.409285      9.2356649     -2.6726805      321791.63      177.23612      34.63915       34.63915      -0.60939271    -0.042715527    0.11570852    -0.0031545203   0.053909538    0.1159576      360040.07      866.17499    
  39908000   39908          0.997992      -0.29969753     7.7370138      1.4969814      10.407584      9.2339952     -2.67057        322193.88      177.24795      34.639645      34.639645     -0.75364264    -0.16615984     0.02070989    -0.026175083    0.053056       0.1465904      360078.57      830.08991    
  39912000   39912          1.0033009     -0.10521897     7.7379179      1.5049447      10.406736      9.2428626     -2.668818       320215.29      177.25979      34.640614      34.640614     -0.41991437     0.084335511    0.019921943    0.10852633     0.094658648    0.0031020356   360117.32      794.00492    
  39916000   39916          0.99815199    -0.32248377     7.7386817      1.4972214      10.408424      9.2359031     -2.669742       321813.58      177.27162      34.633075      34.633075     -0.84227736    -0.13464457     0.0094706378   0.03268747    -0.002192582   -0.019469929    360156.18      757.91961    
  39920000   39920          0.99945299    -0.21035352     7.7353964      1.4991728      10.407457      9.2345693     -2.6720605      322139.62      177.28346      34.628167      34.628167     -0.62252166     0.022424892   -0.030963782    0.032852134   -0.040574521    0.12038888     360194.5       721.83266    
  39924000   39924          0.99961507    -0.26983383     7.7406604      1.499416       10.413087      9.2400764     -2.6724263      320922.34      177.29529      34.629543      34.629543     -0.77344633    -0.026664877   -0.0093902991   0.018024607   -0.025392298    0.064654193    360232.97      685.74555    
  39928000   39928          0.99789357    -0.23769286     7.7361583      1.4968337      10.408797      9.2329921     -2.672639       322546.95      177.30713      34.623595      34.623595     -0.61617509    -0.14890245     0.051998981    0.07215089    -0.087183322   -0.084069393    360271.01      649.6572     
  39932000   39932          0.99656832    -0.3336127      7.7395252      1.4948459      10.411182      9.234371      -2.6716569      322262.03      177.31896      34.62187       34.62187      -0.80472394    -0.14990354    -0.046210621   -0.028779658    0.058113407   -0.10095774     360309.36      613.56899    
  39936000   39936          1.0015002     -0.31446438     7.737895       1.5022436      10.409276      9.2401387     -2.6713809      320982.45      177.3308       34.625675      34.625675     -0.65262854    -0.048937012   -0.24182758     0.0023834689  -0.051817979    0.085228963    360347.95      577.48068    
  39940000   39940          1.0008249     -0.13596844     7.7344724      1.5012306      10.405757      9.2357031     -2.6712842      322009.86      177.34263      34.62423       34.62423      -0.63267991     0.093321548    0.13145303    -0.0046469194  -0.0025593223   0.056136821    360386.1       541.39123    
  39944000   39944          0.99628967    -0.20988287     7.7362279      1.4944279      10.409166      9.2306558     -2.6729381      323177.04      177.35447      34.626713      34.626713     -0.64257104    -0.030872043    0.043794466    0.10822198     0.032961954   -0.052281655    360424.77      505.3021     
  39948000   39948          1.0013315     -0.31439497     7.7350703      1.5019906      10.408242      9.2370609     -2.6731717      321753.57      177.3663       34.616198      34.616198     -0.74906323    -0.17843845    -0.015683231    0.021920922   -0.0024035325   0.044814101    360463.22      469.21217    
  39952000   39952          0.99993377    -0.22244675     7.739144       1.499894       10.411275      9.2390381     -2.6721309      321334.17      177.37813      34.617415      34.617415     -0.60049484    -0.056707204   -0.010138204    0.11879603     0.037538851    0.09350666     360501.25      433.12125    
  39956000   39956          0.99912931    -0.33484115     7.7416114      1.4986873      10.410517      9.2402988     -2.6689054      321074.39      177.38997      34.62399       34.62399      -0.81045792    -0.17069504    -0.02337048     0.088874856   -0.098017421    0.057398423    360539.98      397.03072    
  39960000   39960          0.99581445    -0.27390085     7.7394843      1.4937151      10.408112      9.2331994     -2.6686276      322703.65      177.4018       34.62491       34.62491      -0.74151731    -0.024154398   -0.05603085     0.10132587     0.053627117   -0.04304992     360578.19      360.93913    
  39964000   39964          0.99930304    -0.38277429     7.7415762      1.4989479      10.409207      9.2405242     -2.6676307      321073.98      177.41364      34.627797      34.627797     -0.90272495    -0.19378578    -0.051812139   -0.026576811   -0.061787932    0.02752418     360616.38      324.8471     
  39968000   39968          1.0009465     -0.12851653     7.7386161      1.501413       10.407637      9.2400291     -2.6690205      321212.07      177.42547      34.61882       34.61882      -0.59204574     0.10496707     0.10152908    -0.036256087    0.067770809    0.065349074    360655.21      288.75517    
  39972000   39972          0.99916181    -0.22379657     7.7349447      1.4987361      10.403068      9.2336808     -2.6681235      322669.7       177.43731      34.626663      34.626663     -0.73255794    -0.0050343601   0.06620258     0.063853249   -0.028416189   -0.023327968    360692.65      252.66172    
  39976000   39976          1.0021859     -0.16946231     7.7374425      1.5032722      10.406099      9.2407147     -2.6686564      321106.24      177.44914      34.611031      34.611031     -0.68558497     0.052414839    0.1247832     -0.010964665   -0.0075957016  -0.036238903    360731.07      216.56858    
  39980000   39980          1.001666      -0.258683       7.7398874      1.5024923      10.407844      9.2423797     -2.6679564      320756.71      177.46098      34.620256      34.620256     -0.75696804    -0.12369727     0.10461629    -0.0040635681   0.062365711    0.0060535027   360769.4       180.47494    
  39984000   39984          1.0004563     -0.28024517     7.7343486      1.5006779      10.40345       9.2350265     -2.6691018      322442.86      177.47281      34.607981      34.607981     -0.92122344     0.025215006    0.055272915    0.034833564   -0.069503491   -0.026719322    360807.29      144.38067    
  39988000   39988          0.9998666     -0.20190033     7.7388352      1.4997933      10.406716      9.2386284     -2.6678805      321654.25      177.48465      34.619324      34.619324     -0.73997297    -0.0066559622   0.14092793    -0.066097305   -0.13035235     0.03498185     360845.67      108.28619    
  39992000   39992          0.99874526    -0.25326764     7.7421208      1.4981113      10.41126       9.240232      -2.6691396      321320.28      177.49648      34.606771      34.606771     -0.64970341    -0.044281874   -0.065817655   -0.084451312   -0.065433463   -0.0091520466   360884.14      72.191267    
  39996000   39996          0.99801645    -0.24484924     7.7412889      1.4970181      10.409123      9.2383069     -2.6678337      321781.01      177.50832      34.613543      34.613543     -0.71450033    -0.079313817    0.05926642     0.14795052    -0.010140997   -0.031056454    360922.24      36.095833    
  40000000   40000          0.99708412    -0.28468107     7.7359574      1.4956196      10.404817      9.231577      -2.66886        323324.46      177.52015      34.612557      34.612557     -0.81113467    -0.074124328    0.031215795    0.046409108   -0.040354506   -0.018333342    360961.19      0            
Loop time of 360961 on 18 procs for 40000000 steps with 225980 atoms

Performance: 9574.437 tau/day, 110.815 timesteps/s
94.7% CPU use with 18 MPI tasks x 1 OpenMP threads

MPI task timing breakdown:
Section |  min time  |  avg time  |  max time  |%varavg| %total
---------------------------------------------------------------
Pair    | 21745      | 26327      | 29543      |1169.1 |  7.29
Bond    | 1.0074e+05 | 1.3015e+05 | 1.5318e+05 |3726.3 | 36.06
Neigh   | 288.21     | 297.62     | 306.25     |  29.7 |  0.08
Comm    | 52670      | 78232      | 1.1134e+05 |5353.3 | 21.67
Output  | 1658.2     | 1658.2     | 1658.3     |   0.1 |  0.46
Modify  | 1.1688e+05 | 1.1785e+05 | 1.1881e+05 | 149.4 | 32.65
Other   |            | 6445       |            |       |  1.79

Nlocal:        12554.4 ave       12677 max       12386 min
Histogram: 1 1 0 1 4 3 1 4 1 2
Nghost:        26686.7 ave       26885 max       26420 min
Histogram: 1 1 0 1 5 2 2 3 0 3
Neighs:              0 ave           0 max           0 min
Histogram: 18 0 0 0 0 0 0 0 0 0

Total # of neighbors = 0
Ave neighs/atom = 0
Ave special neighs/atom = 66.124259
Neighbor list builds = 211655
Dangerous builds = 0

# GENERATION RESTART
write_restart ./out.deform.restart
System init for write_restart ...
Generated 0 of 36 mixed pair_coeff terms from geometric mixing rule
write_data    ./out.deform.data pair ij
System init for write_data ...
Generated 0 of 36 mixed pair_coeff terms from geometric mixing rule
Total wall time: 100:16:06
