LAMMPS (15 Sep 2022)
OMP_NUM_THREADS environment is not set. Defaulting to 1 thread. (src/comm.cpp:98)
  using 1 OpenMP thread(s) per MPI task
package gpu 0 binsize 12.0
# LAMMPS Script for deform
# Generated 12/17/2022

# INIT PARAMS & READ CONF
include   "/work_bgfs/h/harshad/simulation_9/quiescent_script/filler_repulsive/system.init"
# UNITS
units		lj
dimension	3
atom_style	bond

# INPUT FILE
pair_style	lj/cut 2.5
bond_style	hybrid harmonic fene
read_data /work_bgfs/h/harshad/simulation_9/np7/5000chain/200phr/9_stretching/filler_repulsive/quiescent/out.quiescent.data
Reading data file ...
  orthogonal box = (0.40747319 0.40747319 0.40747319) to (59.592527 59.592527 59.592527)
  2 by 2 by 4 MPI processor grid
  reading atoms ...
  225980 atoms
  reading velocities ...
  225980 velocities
  scanning bonds ...
  16 = max bonds/atom
  reading bonds ...
  923860 bonds
Finding 1-2 1-3 1-4 neighbors ...
  special bond factors lj:    0        0        0       
  special bond factors coul:  0        0        0       
    19 = max # of 1-2 neighbors
   285 = max # of 1-3 neighbors
  4477 = max # of 1-4 neighbors
   201 = max # of special neighbors
  special bonds CPU = 0.340 seconds
  read_data CPU = 3.198 seconds
include   "/work_bgfs/h/harshad/simulation_9/quiescent_script/filler_repulsive/system.kappa1000.settings"
# ATOM TYPE
mass  1  1.0 #backbone
mass  2  1.0 #endmer
mass  3  1.0 #crosslinker
mass  4  1.0 #outer shell
mass  5  1.0 #inner shell 2
mass  6  1.0 #inner-most shell
mass  7  1.0 #center bead
mass  8  1.0 #endmer post crosslinking
mass  9  1.0 #crosslinker post crosslinking

# BOND
bond_coeff 1 harmonic 1000 0.951057
bond_coeff 2 harmonic 1000 1.000000
bond_coeff 3 harmonic 1000 1.380039
bond_coeff 4 harmonic 1000 1.414214
bond_coeff 5 fene 30.0 1.50 1.0 1.0
special_bonds lj 0.0 1.0 1.0
Finding 1-2 1-3 1-4 neighbors ...
  special bond factors lj:    0        1        1       
  special bond factors coul:  0        0        0       
    19 = max # of 1-2 neighbors
   285 = max # of 1-3 neighbors
  4477 = max # of 1-4 neighbors
   201 = max # of special neighbors
  special bonds CPU = 0.329 seconds

# PAIR
variable rcut equal 2^(1/6)
pair_coeff  1*3 1*9 1 1
pair_coeff  4*7 4*7 1 1 ${rcut}
pair_coeff  4*7 4*7 1 1 1.12246204830937
pair_coeff  4*9 8*9 1 1

pair_modify  shift yes
neigh_modify delay 1 check yes

# MAKE GROUPS
group polymer type 1 2 3 8 9
102500 atoms in group polymer
#group ins     type 1
#group strand  type 1 2 8
#group ends    type 2 8
#group xlinks  type 3 9
group filler  type 4 5 6 7
123480 atoms in group filler

neighbor 1.5 multi
comm_modify     mode multi cutoff/multi 1 1.5 cutoff/multi * 2.8

# INPUTS FROM SBATCH
variable Temp          equal 1.0
variable gamma_total   equal 2.0
variable gamma_rate    equal 0.00005
variable dt            equal 0.001
variable Nfreq         equal 4000
variable Nrepeat_2     equal 100
variable Nevery_1      equal 1
variable Nrepeat_1     equal 1

variable Run           equal ${gamma_total}/${gamma_rate}/${dt}
variable Run           equal 2/${gamma_rate}/${dt}
variable Run           equal 2/5e-05/${dt}
variable Run           equal 2/5e-05/0.001

# RUN OPTIONS
run_style verlet
timestep  ${dt}
timestep  0.001

# RESTART
restart  ${Nfreq} cycle.1.restart cycle.2.restart
restart  4000 cycle.1.restart cycle.2.restart

# SAVE RESTARTS EVERY 10% EXTENSION
variable RestFreq      equal 0.1/${gamma_rate}/${dt}
variable RestFreq      equal 0.1/5e-05/${dt}
variable RestFreq      equal 0.1/5e-05/0.001
restart  ${RestFreq} deform.*.restart
restart  2000000 deform.*.restart

# COMPUTE ke/atom, pe/atom, pxx/atom, position and time-avg
compute     ke_atm          all     ke/atom
compute     p_atm           all     stress/atom NULL
compute     pe_atm          all     pe/atom
compute     ebond_atm       all     pe/atom bond
compute     posit_atm       all     property/atom x y z
fix         avg_ke_atm_1    all     ave/atom ${Nevery_1} ${Nrepeat_1} ${Nfreq} c_ke_atm
fix         avg_ke_atm_1    all     ave/atom 1 ${Nrepeat_1} ${Nfreq} c_ke_atm
fix         avg_ke_atm_1    all     ave/atom 1 1 ${Nfreq} c_ke_atm
fix         avg_ke_atm_1    all     ave/atom 1 1 4000 c_ke_atm
fix         avg_pxx_atm_1   all     ave/atom ${Nevery_1} ${Nrepeat_1} ${Nfreq} c_p_atm[*]
fix         avg_pxx_atm_1   all     ave/atom 1 ${Nrepeat_1} ${Nfreq} c_p_atm[*]
fix         avg_pxx_atm_1   all     ave/atom 1 1 ${Nfreq} c_p_atm[*]
fix         avg_pxx_atm_1   all     ave/atom 1 1 4000 c_p_atm[*]
fix         avg_pe_atm_1    all     ave/atom ${Nevery_1} ${Nrepeat_1} ${Nfreq} c_pe_atm
fix         avg_pe_atm_1    all     ave/atom 1 ${Nrepeat_1} ${Nfreq} c_pe_atm
fix         avg_pe_atm_1    all     ave/atom 1 1 ${Nfreq} c_pe_atm
fix         avg_pe_atm_1    all     ave/atom 1 1 4000 c_pe_atm
#fix         avg_posit_atm_1 all     ave/atom ${Nevery_1} ${Nrepeat_1} ${Nfreq} c_posit_atm[1] c_posit_atm[2] c_posit_atm[3]
dump        dump_1 all custom ${Nfreq} ${out_dir}traj.${Nevery_1}_${Nrepeat_1}_${Nfreq}.xyz mol type x y z f_avg_ke_atm_1 f_avg_pe_atm_1 f_avg_pxx_atm_1[*]
dump        dump_1 all custom 4000 ${out_dir}traj.${Nevery_1}_${Nrepeat_1}_${Nfreq}.xyz mol type x y z f_avg_ke_atm_1 f_avg_pe_atm_1 f_avg_pxx_atm_1[*]
dump        dump_1 all custom 4000 /shares_bgfs/dssimmons_data/harshad/deform/np7/200phr/filler_repulsive/work_bgfs--h--harshad--simulation_9--np7--5000chain--200phr--9_stretching--filler_repulsive--traj.${Nevery_1}_${Nrepeat_1}_${Nfreq}.xyz mol type x y z f_avg_ke_atm_1 f_avg_pe_atm_1 f_avg_pxx_atm_1[*]
dump        dump_1 all custom 4000 /shares_bgfs/dssimmons_data/harshad/deform/np7/200phr/filler_repulsive/work_bgfs--h--harshad--simulation_9--np7--5000chain--200phr--9_stretching--filler_repulsive--traj.1_${Nrepeat_1}_${Nfreq}.xyz mol type x y z f_avg_ke_atm_1 f_avg_pe_atm_1 f_avg_pxx_atm_1[*]
dump        dump_1 all custom 4000 /shares_bgfs/dssimmons_data/harshad/deform/np7/200phr/filler_repulsive/work_bgfs--h--harshad--simulation_9--np7--5000chain--200phr--9_stretching--filler_repulsive--traj.1_1_${Nfreq}.xyz mol type x y z f_avg_ke_atm_1 f_avg_pe_atm_1 f_avg_pxx_atm_1[*]
dump        dump_1 all custom 4000 /shares_bgfs/dssimmons_data/harshad/deform/np7/200phr/filler_repulsive/work_bgfs--h--harshad--simulation_9--np7--5000chain--200phr--9_stretching--filler_repulsive--traj.1_1_4000.xyz mol type x y z f_avg_ke_atm_1 f_avg_pe_atm_1 f_avg_pxx_atm_1[*]
dump_modify dump_1 append yes sort id

# COMPUTE a separate pe and ke for each group, AVG & SAVE
compute   pe_polymer    polymer reduce  sum c_pe_atm
compute   pe_filler     filler  reduce  sum c_pe_atm
compute   ebond_polymer polymer reduce  sum c_ebond_atm
compute   ebond_filler  filler  reduce  sum c_ebond_atm
compute   ke_polymer    polymer reduce  sum c_ke_atm
compute   ke_filler     filler  reduce  sum c_ke_atm
compute   pxx_polymer   polymer reduce  sum c_p_atm[1] c_p_atm[2] c_p_atm[3]
compute   pxx_filler    filler  reduce  sum c_p_atm[1] c_p_atm[2] c_p_atm[3]
compute   pxy_polymer   polymer reduce  sum c_p_atm[4] c_p_atm[5] c_p_atm[6]
compute   pxy_filler    filler  reduce  sum c_p_atm[4] c_p_atm[5] c_p_atm[6]
#compute   pxx_all       all     reduce  sum c_p_atm
fix 		  avgEnergy     all     ave/time ${Nevery_1} ${Nrepeat_2} ${Nfreq} c_pe_polymer c_ke_polymer c_ebond_polymer c_pe_filler c_ke_filler c_ebond_filler c_pxy_polymer[1] c_pxy_polymer[2] c_pxy_polymer[3] c_pxy_filler[1] c_pxy_filler[2] c_pxy_filler[3]   file energy.avg.csv
fix 		  avgEnergy     all     ave/time 1 ${Nrepeat_2} ${Nfreq} c_pe_polymer c_ke_polymer c_ebond_polymer c_pe_filler c_ke_filler c_ebond_filler c_pxy_polymer[1] c_pxy_polymer[2] c_pxy_polymer[3] c_pxy_filler[1] c_pxy_filler[2] c_pxy_filler[3]   file energy.avg.csv
fix 		  avgEnergy     all     ave/time 1 100 ${Nfreq} c_pe_polymer c_ke_polymer c_ebond_polymer c_pe_filler c_ke_filler c_ebond_filler c_pxy_polymer[1] c_pxy_polymer[2] c_pxy_polymer[3] c_pxy_filler[1] c_pxy_filler[2] c_pxy_filler[3]   file energy.avg.csv
fix 		  avgEnergy     all     ave/time 1 100 4000 c_pe_polymer c_ke_polymer c_ebond_polymer c_pe_filler c_ke_filler c_ebond_filler c_pxy_polymer[1] c_pxy_polymer[2] c_pxy_polymer[3] c_pxy_filler[1] c_pxy_filler[2] c_pxy_filler[3]   file energy.avg.csv
fix       avgPxx_all    all     ave/time ${Nevery_1} ${Nfreq} ${Nfreq}     c_pxx_polymer[1] c_pxx_polymer[2] c_pxx_polymer[3] c_pxx_filler[1] c_pxx_filler[2] c_pxx_filler[3]                                                                                    file pxx.all.avg.csv
fix       avgPxx_all    all     ave/time 1 ${Nfreq} ${Nfreq}     c_pxx_polymer[1] c_pxx_polymer[2] c_pxx_polymer[3] c_pxx_filler[1] c_pxx_filler[2] c_pxx_filler[3]                                                                                    file pxx.all.avg.csv
fix       avgPxx_all    all     ave/time 1 4000 ${Nfreq}     c_pxx_polymer[1] c_pxx_polymer[2] c_pxx_polymer[3] c_pxx_filler[1] c_pxx_filler[2] c_pxx_filler[3]                                                                                    file pxx.all.avg.csv
fix       avgPxx_all    all     ave/time 1 4000 4000     c_pxx_polymer[1] c_pxx_polymer[2] c_pxx_polymer[3] c_pxx_filler[1] c_pxx_filler[2] c_pxx_filler[3]                                                                                    file pxx.all.avg.csv

# TIME-AVG Ly
variable Ly equal ly
fix       avgLy         all     ave/time ${Nevery_1} ${Nfreq} ${Nfreq}     v_Ly  file Ly.avg.csv
fix       avgLy         all     ave/time 1 ${Nfreq} ${Nfreq}     v_Ly  file Ly.avg.csv
fix       avgLy         all     ave/time 1 4000 ${Nfreq}     v_Ly  file Ly.avg.csv
fix       avgLy         all     ave/time 1 4000 4000     v_Ly  file Ly.avg.csv

# SIMULATION FIXES
fix  npt        all npt temp ${Temp} ${Temp} 2.0 y 0 0 5 z 0 0 5 couple yz
fix  npt        all npt temp 1 ${Temp} 2.0 y 0 0 5 z 0 0 5 couple yz
fix  npt        all npt temp 1 1 2.0 y 0 0 5 z 0 0 5 couple yz
fix  mom        all momentum 10000 linear 1 1 1
fix  deform     all deform 1 x erate ${gamma_rate} remap x units box
fix  deform     all deform 1 x erate 5e-05 remap x units box

# THERMO
variable  thermo_frq equal ${Nfreq}
variable  thermo_frq equal 4000
thermo    ${thermo_frq}
thermo    4000
thermo_style  custom step time temp press pe ke ebond etotal epair ecouple lx ly lz pxx pyy pzz pxy pxz pyz cpu cpuremain

# deform
run ${Run}
run 40000000

CITE-CITE-CITE-CITE-CITE-CITE-CITE-CITE-CITE-CITE-CITE-CITE-CITE

Your simulation uses code contributions which should be cited:

- GPU package (short-range, long-range and three-body potentials): doi:10.1016/j.cpc.2010.12.021, doi:10.1016/j.cpc.2011.10.012, doi:10.1016/j.cpc.2013.08.002, doi:10.1016/j.commatsci.2014.10.068, doi:10.1016/j.cpc.2016.10.020, doi:10.3233/APC200086

@Article{Brown11,
 author = {W. M. Brown and P. Wang and S. J. Plimpton and A. N. Tharrington},
 title = {Implementing Molecular Dynamics on Hybrid High Performance Computers---Short Range Forces},
 journal = {Comput.\ Phys.\ Commun.},
 year =    2011,
 volume =  182,
 pages =   {898--911},
 doi =     {10.1016/j.cpc.2010.12.021}
}

@Article{Brown12,
 author = {W. M. Brown and A. Kohlmeyer and S. J. Plimpton and A. N. Tharrington},
 title = {Implementing Molecular Dynamics on Hybrid High Performance Computers - Particle-Particle Particle-Mesh},
 journal = {Comput.\ Phys.\ Commun.},
 year =    2012,
 volume =  183,
 doi =     {10.1016/j.cpc.2011.10.012},
 pages =   {449--459}
}

@Article{Brown13,
 author = {W. M. Brown and Y. Masako},
 title = {Implementing Molecular Dynamics on Hybrid High Performance Computers---Three-Body Potentials},
 journal = {Comput.\ Phys.\ Commun.},
 year =    2013,
 volume =  184,
 pages =   {2785--2793},
 doi =     {10.1016/j.cpc.2013.08.002},
}

@Article{Trung15,
 author = {T. D. Nguyen and S. J. Plimpton},
 title = {Accelerating Dissipative Particle Dynamics Simulations for Soft Matter Systems},
 journal = {Comput.\ Mater.\ Sci.},
 year =    2015,
 doi =     {10.1016/j.commatsci.2014.10.068},
 volume =  100,
 pages =   {173--180}
}

@Article{Trung17,
 author = {T. D. Nguyen},
 title = {{GPU}-Accelerated {T}ersoff Potentials for Massively Parallel
    Molecular Dynamics Simulations},
 journal = {Comput.\ Phys.\ Commun.},
 year =    2017,
 doi =     {10.1016/j.cpc.2016.10.020},
 volume =  212,
 pages =   {113--122}
}

@inproceedings{Nikolskiy19,
 author = {V. Nikolskiy and V. Stegailov},
 title = {{GPU} Acceleration of Four-Site Water Models in {LAMMPS}},
 booktitle = {Proceedings of the International Conference on Parallel
    Computing (ParCo 2019), Prague, Czech Republic},
 doi =     {10.3233/APC200086},
 year =    2019
}

- neighbor multi command: doi:10.1016/j.cpc.2008.03.005, doi:10.1007/s40571-020-00361-2

@Article{Intveld08,
 author =  {in 't Veld, P. J. and S. J.~Plimpton and G. S. Grest},
 title =   {Accurate and Efficient Methods for Modeling Colloidal
            Mixtures in an Explicit Solvent using Molecular Dynamics},
 journal = {Comput.\ Phys.\ Commut.},
 year =    2008,
 volume =  179,
 pages =   {320--329}
}

@article{Shire2020,
 author = {Shire, Tom and Hanley, Kevin J. and Stratford, Kevin},
 title = {{DEM} Simulations of Polydisperse Media: Efficient Contact
          Detection Applied to Investigate the Quasi-Static Limit},
 journal = {Computational Particle Mechanics},
 year = {2020}
}

CITE-CITE-CITE-CITE-CITE-CITE-CITE-CITE-CITE-CITE-CITE-CITE-CITE

Generated 0 of 36 mixed pair_coeff terms from geometric mixing rule
WARNING: Communication cutoff adjusted to 4 (src/comm.cpp:732)
WARNING: Inconsistent image flags (src/domain.cpp:819)
Per MPI rank memory allocation (min/avg/max) = 80.21 | 80.26 | 80.32 Mbytes
   Step          Time           Temp          Press          PotEng         KinEng         E_bond         TotEng         E_pair        Ecouple           Lx             Ly             Lz            Pxx            Pyy            Pzz            Pxy            Pxz            Pyz            CPU          CPULeft    
         0   0              1.0013143     -0.068597153    7.587194       1.5019648      10.394375      9.0891589     -2.807181       0              59.185054      59.185054      59.185054     -0.11010775    -0.0075606602  -0.088123046   -0.04547351     0.052489816    0.060226614    0              0            
      4000   4              1.0000501     -0.14661246     7.584614       1.5000685      10.391746      9.0846825     -2.8071319      1054.7622      59.196891      59.171404      59.171404     -0.19963557    -0.24992471     0.0097228896  -0.031427951   -0.0064794426  -0.039930772    33.185992      331826.75    
      8000   8              0.99972092     0.15607439     7.5828546      1.4995747      10.393554      9.0824293     -2.8106997      1610.1683      59.208728      59.149119      59.149119      0.069432692    0.18284305     0.21594743    -0.061033886   -0.012562825    0.013435738    66.51674       332517.19    
     12000   12             1.0016542     -0.064183531    7.5874286      1.5024746      10.392775      9.0899031     -2.805346      -32.155502      59.220565      59.158408      59.158408     -0.082488049   -0.05331287    -0.056749674    0.10189685     0.035658838    0.066165507    99.991563      333205.22    
     16000   16             0.99881332     0.066955755    7.5881651      1.4982133      10.395074      9.0863785     -2.8069085      811.62946      59.232402      59.155758      59.155758      0.03165808    -0.00056152816  0.16977071     0.005009086   -0.096890873   -0.044414381    133.38756      333335.51    
     20000   20             0.99817556     0.10210629     7.5842233      1.4972567      10.390894      9.08148       -2.8066711      1959.5556      59.244239      59.149575      59.149575     -0.026079391    0.132201       0.20019727     0.012733579   -0.0089969456  -0.073574762    166.1909       332215.61    
     24000   24             1.0011357     -0.034662967    7.5905123      1.5016969      10.396172      9.0922091     -2.8056599     -415.28436      59.256076      59.151198      59.151198     -0.023268879   -0.11042012     0.029700104    0.035810262    0.022497008   -0.041014114    199.75201      332720.27    
     28000   28             1.0001402     -0.019815816    7.5872821      1.5002036      10.392226      9.0874857     -2.8049439      696.75636      59.267913      59.159345      59.159345     -0.01103805     0.0087471413  -0.05715654    -0.026800805   -0.079561875    0.041041345    232.79005      332324.42    
     32000   32             0.9981921      0.080928664    7.59162        1.4972815      10.396795      9.0889015     -2.8051746      426.3229       59.27975       59.137061      59.137061      0.047783588    0.098806804    0.096195598    0.061237032    0.065243623    0.045178197    266.47088      332822.13    
     36000   36             1.0005503      0.12217079     7.5943515      1.5008188      10.397275      9.0951703     -2.8029238     -943.34929      59.291587      59.146997      59.146997      0.052611821    0.22504322     0.088857337   -0.012517036   -0.0069086567  -0.057537928    299.06576      331996.22    
     40000   40             0.99735776     0.0040731251   7.591279       1.49603        10.395765      9.087309      -2.8044862      879.3244       59.303424      59.138584      59.138584     -0.10684337     0.024855104    0.094207644    0.010951438    0.0073551879   0.0095428034   331.96824      331636.28    
     44000   44             1.0009836      0.01571493     7.5880265      1.5014687      10.392951      9.0894952     -2.8049245      431.3756       59.315261      59.132025      59.132025     -0.045511669    0.0054432875   0.087213172    0.070944898    0.067039488   -0.04522868     364.62712      331114.58    
     48000   48             0.99904881     0.27395941     7.5939016      1.4985666      10.395976      9.0924682     -2.802074      -191.40468      59.327098      59.137425      59.137425      0.15900692     0.39009756     0.27277377    -0.034863695   -0.05132819    -0.02842931     397.12712      330542.14    
     52000   52             1.000113       0.047205518    7.5937782      1.5001628      10.394328      9.093941      -2.8005497     -477.23457      59.338935      59.144024      59.144024      0.10122522    -0.0073901704   0.04778151    -0.047104721    0.089099746    0.020700711    429.7994       330185.12    
     56000   56             0.99768509     0.1358991      7.5904078      1.496521       10.394369      9.0869288     -2.8039616      1156.6905      59.350772      59.118927      59.118927     -0.078894075    0.31195967     0.1746317     -0.081909637   -0.033362515   -0.079119117    462.29184      329746.17    
     60000   60             1.0018698     -0.062912006    7.5921922      1.5027981      10.396055      9.0949902     -2.8038625     -618.05041      59.362609      59.118318      59.118318      0.034788796   -0.099853293   -0.12367152    -0.0079673232  -0.025322605    0.033751694    495.17156      329619.2     
     64000   64             1.0019891     -0.07730836     7.5896837      1.502977       10.391698      9.0926607     -2.8020146     -45.432872      59.374446      59.115367      59.115367     -0.10381576    -0.13461226     0.006502943   -0.026514524    0.0064661467  -0.026867454    527.7402       329309.88    
     68000   68             1.0004455     -0.10972279     7.5891218      1.5006615      10.393496      9.0897833     -2.8043744      653.71129      59.386283      59.105372      59.105372     -0.079887305   -0.13811151    -0.11116955    -0.046991132   -0.11534869    -0.01735597     561.42838      329690.56    
     72000   72             0.99993355    -0.10860783     7.5894277      1.4998937      10.394611      9.0893214     -2.8051831      806.69038      59.39812       59.092402      59.092402     -0.20915144    -0.051381082   -0.065290964    0.01632485    -0.021046505    0.023649747    594.22162      329528.9     
     76000   76             1.0018962      0.026736333    7.5881282      1.5028377      10.394088      9.0909659     -2.8059596      482.03182      59.409957      59.074774      59.074774      0.0053720012   0.082212951   -0.0073759542   0.11875037    -0.036046232   -0.00013205337  627.26074      329509.97    
     80000   80             1.0014034      0.049209637    7.5951774      1.5020985      10.397426      9.0972759     -2.8022484     -896.08681      59.421794      59.091523      59.091523      0.022518271    0.027654654    0.097455987   -0.0033609767  -0.020060691    0.010599791    660.22904      329454.29    
     84000   84             0.99794366    -0.056016972    7.5911662      1.4969089      10.393467      9.0880751     -2.8023004      1229.8548      59.433631      59.085142      59.085142     -0.14684225     0.059856552   -0.081065223    0.028899222   -0.019928339   -0.088979305    692.8663       329243.47    
     88000   88             0.99979473    -0.012060492    7.5928484      1.4996855      10.393276      9.0925339     -2.8004273      269.25397      59.445468      59.086228      59.086228     -0.096617854    0.032083101    0.028353277    0.0047674146   0.024026047   -0.059771904    725.78106      329174.7     
     92000   92             1.0011312      0.018776932    7.5923984      1.5016902      10.394083      9.0940885     -2.8016849     -34.439655      59.457305      59.06449       59.06449       0.0096899939  -0.11239957     0.15904037    -0.013999148   -0.091869692    0.041036103    758.74244      329129.27    
     96000   96             0.99895151    -0.0660337      7.588778       1.4984206      10.39149       9.0871987     -2.8027118      1569.4832      59.469142      59.075855      59.075855     -0.0062610729  -0.11131698    -0.080523046   -0.049809222    0.095988165    0.013705367    791.56636      329027.75    
    100000   100            1.0005414     -0.007625516    7.5939693      1.5008055      10.395866      9.0947749     -2.8018964     -91.707526      59.480979      59.064152      59.064152     -0.04954388     0.029889573   -0.0032222408  -0.024278992   -0.035878412   -0.019984798    824.17359      328845.26    
    104000   104            0.99890861    -0.043727179    7.5941144      1.4983563      10.39609       9.0924707     -2.8019753      476.86155      59.492816      59.064591      59.064591     -0.051479914    0.022588215   -0.10228984     0.072747011   -0.047241913   -0.028763301    858.59733      329371.15    
    108000   108            0.9991395      0.083491011    7.5831051      1.4987026      10.388092      9.0818077     -2.804987       2931.1962      59.504653      59.039319      59.039319      0.078553007    0.13681147     0.035108558   -0.045722754   -0.035252701    0.061635132    891.53481      329306.54    
    112000   112            0.99905779    -0.042791135    7.5913272      1.4985801      10.394655      9.0899073     -2.8033273      1152.6004      59.51649       59.044366      59.044366     -0.13316753     0.17891334    -0.17411922    -0.077772616   -0.0021023403  -0.092075288    924.84776      329377.92    
    116000   116            1.0024942      0.0228303      7.5912918      1.5037346      10.392271      9.0950264     -2.8009793      43.178477      59.528327      59.033871      59.033871     -0.1087152      0.1718346      0.0053715039  -0.031524401   -0.07527054     0.0090299915   956.79495      328972.5     
    120000   120            1.0012816     -0.0076184821   7.5905292      1.5019157      10.395204      9.092445      -2.8046743      675.66305      59.540164      59.009846      59.009846      0.0080638413   0.060159275   -0.091078563    0.0067596019  -0.12945738    -0.021267992    990.32161      329116.88    
    124000   124            0.99807578    -0.046712062    7.5915175      1.4971071      10.393579      9.0886246     -2.8020612      1587.7747      59.552001      59.026884      59.026884     -0.084403249   -0.055549101   -0.00018383558  0.063321617   -0.017422872    0.036248222    1023.919       329272.54    
    128000   128            0.99951788    -0.054800647    7.5966077      1.4992702      10.398439      9.0958779     -2.8018316     -2.0539851      59.563838      59.025782      59.025782     -0.10731495    -0.0057787071  -0.051308278   -0.015145871   -0.10891678    -0.013497768    1057.1301      329296.02    
    132000   132            0.99930127    -0.015996958    7.5952234      1.4989453      10.397001      9.0941687     -2.8017778      431.95984      59.575675      59.018895      59.018895     -0.015271893    0.011672172   -0.044391154   -0.0083689989   0.026489548    0.051905154    1090.7443      329437.83    
    136000   136            0.997694       0.033575709    7.5867665      1.4965344      10.391426      9.0833009     -2.8046595      2935.4708      59.587512      59.000018      59.000018     -0.114527       0.17369193     0.041562197   -0.08778829     0.01227535    -0.0014283364   1123.8137      329409.63    
    140000   140            0.99910874     0.066148633    7.5914614      1.4986565      10.395713      9.0901179     -2.8042515      1444.2194      59.599349      58.99169       58.99169       0.03736714     0.12143739     0.039641369   -0.17785178     0.058012904   -0.016981673    1157.1039      329444.02    
    144000   144            1.0006254      0.014481048    7.5915578      1.5009315      10.393644      9.0924892     -2.8020864      957.25964      59.611186      59.013341      59.013341     -0.043289634   -0.0092309593   0.095963739    0.031208541    0.051448587   -0.021793819    1189.889       329334.83    
    148000   148            0.999084      -0.026052003    7.588581       1.4986194      10.391171      9.0872004     -2.8025895      2200.0247      59.623023      58.997509      58.997509     -0.12267138     0.11651636    -0.072000991   -0.027932648    0.032578342    0.080494258    1223.8009      329533.21    
    152000   152            0.99836821    -0.0028163764   7.5955679      1.4975457      10.394362      9.0931136     -2.7987945      914.03096      59.63486       58.996694      58.996694      0.0056215057  -0.026985298    0.012914663   -0.027973258   -0.092928037   -0.10895324     1257.0037      329533.45    
    156000   156            1.0019729     -0.030891999    7.5926122      1.5029527      10.39436       9.0955649     -2.8017478      408.1981       59.646697      58.982291      58.982291     -0.18128939     0.087536979    0.0010764178  -0.1041205      0.018117755   -0.067252871    1290.2011      329530.6     
    160000   160            1.0002074     -0.089085834    7.587071       1.5003044      10.388636      9.0873755     -2.8015652      2305.3225      59.658534      58.992283      58.992283     -0.13191414    -0.10666818    -0.028675182   -0.018700912   -0.05014431    -0.055825444    1323.4992      329551.31    
    164000   164            1.0015637      0.0083863895   7.5953567      1.502339       10.393571      9.0976957     -2.7982144      25.170185      59.670371      58.984148      58.984148     -0.01773672    -0.06276155     0.10565744    -0.088515876    0.07731889    -0.0048466727   1356.6286      329528.39    
    168000   168            1.0035072      0.040534762    7.5911916      1.5052542      10.393119      9.0964458     -2.8019277      356.48923      59.682208      58.969405      58.969405     -0.057585041    0.059835358    0.11935397     0.0055577813  -0.04152143     0.0096777945   1390.0576      329576.03    
    172000   172            0.99647996    -0.0027113857   7.5949494      1.4947133      10.394029      9.0896628     -2.7990792      1940.4357      59.694045      58.971437      58.971437      0.033631379   -0.040890119   -0.00087541685  0.007878573    0.004216353   -0.039851353    1423.4811      329618.64    
    176000   176            1.0005263     -0.043519573    7.5970614      1.5007828      10.397002      9.0978442     -2.7999408      141.49193      59.705882      58.964398      58.964398     -0.049933983   -0.092961788    0.01233705     0.04798398     0.0019561555   0.024328608    1456.9036      329657.54    
    180000   180            1.0007274     -0.089097904    7.5956697      1.5010845      10.394041      9.0967542     -2.7983717      436.2382       59.717719      58.969904      58.969904     -0.07276303    -0.044278652   -0.15025203     0.096268243   -0.069946362    0.10227355     1489.7383      329563.21    
    184000   184            0.99649998    -0.062116186    7.5971384      1.4947434      10.394794      9.0918818     -2.797656       1586.9808      59.729556      58.973779      58.973779     -0.12817945     0.10375004    -0.16191914     0.024143867    0.0044610269  -0.021661061    1523.1539      329597.25    
    188000   188            1.0020577      0.088328243    7.5923067      1.5030799      10.391936      9.0953866     -2.7996292      843.88939      59.741393      58.944688      58.944688     -0.017044425    0.089139115    0.19289004     0.0010126229  -0.080826871    0.1257829      1556.0087      329509.66    
    192000   192            0.99823615    -0.029149932    7.5965673      1.4973476      10.396052      9.0939149     -2.7994847      1227.0481      59.75323       58.938782      58.938782      0.011661115   -0.1214678      0.022356893    0.043214133   -0.0012346831  -0.013336884    1589.6009      329577.25    
    196000   196            1.0004062     -0.13010735     7.5875879      1.5006026      10.389429      9.0881905     -2.8018414      2567.4726      59.765067      58.92007       58.92007      -0.24196078    -0.096443364   -0.051917902   -0.0082624246   0.10482169    -0.10150113     1622.0586      329410.31    
    200000   200            1.0013149     -0.14442092     7.5942255      1.5019657      10.394458      9.0961912     -2.8002323      809.95595      59.776904      58.931812      58.931812     -0.31416943     0.031900612   -0.15099393    -0.028742576   -0.08886396    -0.085852353    1655.2491      329394.58    
    204000   204            1.0010754     -0.035950842    7.5920412      1.5016065      10.391334      9.0936477     -2.7992924      1433.2789      59.788741      58.928961      58.928961     -0.17675796     0.12871649    -0.059811059   -0.078830316   -0.0053329327  -0.040680933    1688.2148      329334.3     
    208000   208            0.99728676     0.022910123    7.5932632      1.4959235      10.395716      9.0891867     -2.8024527      2492.2849      59.800578      58.890145      58.890145      0.0009294575   0.13710898    -0.06930807    -0.042149715    0.031685682   -0.094911933    1721.0289      329246.06    
    212000   212            0.99830233     0.043029907    7.5905665      1.4974469      10.390687      9.0880134     -2.8001201      2802.8883      59.812415      58.916216      58.916216      0.011192517    0.10725035     0.010646858   -0.016802886   -0.014940352   -0.066603923    1754.3086      329247.31    
    216000   216            1.0023305     -0.025890037    7.5930221      1.5034891      10.391772      9.0965112     -2.7987501      933.1208       59.824252      58.906349      58.906349     -0.12035934     0.039662488    0.0030267411   0.008678764   -0.070021239   -0.0010125118   1787.499       329230.84    
    220000   220            1.0008701     -0.04034556     7.592532       1.5012985      10.390718      9.0938305     -2.7981858      1588.3086      59.836089      58.90728       58.90728      -0.12536479     0.095548077   -0.09121997    -0.071302537    0.081224545   -0.026708115    1821.2309      329311.66    
    224000   224            0.99742657    -0.15850149     7.5931438      1.4961332      10.39258       9.089277      -2.7994367      2667.3305      59.847926      58.906196      58.906196     -0.22045009    -0.14389783    -0.11115654     0.02868205    -0.00014351974 -0.029457993    1854.2814      329267.39    
    228000   228            1.0018524      0.12390952     7.5947453      1.5027719      10.393735      9.0975172     -2.7989899      854.74507      59.859763      58.874373      58.874373      0.019033928    0.19836942     0.15432522    -0.054106594    0.071347855    0.042839213    1887.7493      329296.34    
    232000   232            1.0005846     -0.027397214    7.5910805      1.5008702      10.391223      9.0919507     -2.8001427      2159.6902      59.8716        58.885031      58.885031     -0.085692144   -0.053539047    0.057039549   -0.061580525   -0.014062242    0.058681128    1920.6671      329228.84    
    236000   236            0.99956979    -0.097626089    7.5908282      1.499348       10.391345      9.0901762     -2.800517       2608.341       59.883437      58.885863      58.885863     -0.19642839    -0.021806029   -0.074643846    0.015342655   -0.15591359     0.10054125     1954.7426      329357.57    
    240000   240            1.0008299     -0.062297932    7.5991006      1.5012382      10.394989      9.1003389     -2.7958883      363.6952       59.895274      58.878335      58.878335     -0.067690165    0.073112237   -0.19231587     0.0037108984  -0.036168433   -0.011202164    1987.5959      329278.39    
    244000   244            0.99770284    -0.032457442    7.5961656      1.4965476      10.395913      9.0927132     -2.7997472      2135.2043      59.907111      58.861162      58.861162     -0.3190408      0.14469378     0.07697469    -0.15642194     0.091930128    0.028666741    2020.6877      329239.59    
    248000   248            1.0003669      0.0070959637   7.5934776      1.5005437      10.393193      9.0940214     -2.7997149      1888.4676      59.918948      58.865975      58.865975     -0.14087123     0.058072764    0.10408636    -0.028225284    0.0010374731  -0.095939656    2053.8843      329217.78    
    252000   252            1.0019063      0.055467925    7.5985872      1.5028527      10.395746      9.10144       -2.7971588      263.58299      59.930785      58.864727      58.864727      0.058606065    0.052807458    0.054990251    0.00058630173 -0.051690838    0.066192414    2087.0001      329182.87    
    256000   256            0.99893426    -0.10110561     7.5990564      1.4983948      10.396018      9.0974512     -2.7969611      1214.9825      59.942622      58.857749      58.857749     -0.27706879    -0.10583026     0.079582223    0.11367044    -0.02789148     0.056076027    2120.7175      329241.39    
    260000   260            0.99817345    -0.021613096    7.5943463      1.4972535      10.393669      9.0915999     -2.7993226      2586.8522      59.954459      58.839898      58.839898     -0.080653411   -0.069314535    0.085128658   -0.034930547    0.045266148    0.05533266     2153.9943      329229.74    
    264000   264            0.99912316    -0.096606095    7.5873887      1.4986781      10.3906        9.0860668     -2.8032118      3884.26        59.966296      58.824962      58.824962     -0.14776276    -0.094961529   -0.047093995   -0.037588133   -0.094939298    0.0075785315   2188.0114      329328.87    
    268000   268            1.0006545      0.05110911     7.5934824      1.5009751      10.393393      9.0944575     -2.7999101      2039.6128      59.978133      58.839079      58.839079     -0.01105263    -0.028393007    0.19277297     0.015440639    0.10873099    -0.052833579    2220.8005      329241.95    
    272000   272            0.99783817     0.01149922     7.5951437      1.4967506      10.393837      9.0918944     -2.7986932      2668.28        59.98997       58.833353      58.833353     -0.15509981     0.031312895    0.15828458    -0.056305035    0.032057386    0.038129947    2254.5964      329303.7     
    276000   276            1.0033067     -0.15150601     7.5935418      1.5049534      10.393458      9.0984951     -2.7999163      1226.7837      60.001807      58.830289      58.830289     -0.12958098    -0.037555826   -0.28738122     0.023693387   -0.025088197    0.071619357    2288.1986      329334.79    
    280000   280            1.000049      -0.059843302    7.5963133      1.5000668      10.395905      9.0963801     -2.7995913      1755.9464      60.013644      58.830373      58.830373     -0.19846803     0.10107876    -0.082140634   -0.026402886    0.0010860961   0.030432573    2321.4416      329313.07    
    284000   284            0.99805637    -0.10261108     7.5989802      1.4970779      10.396542      9.0960581     -2.7975613      1878.9701      60.025481      58.826967      58.826967     -0.13305102     0.0035367215  -0.17831893    -0.10792092    -0.012242534   -0.0047864355   2354.9632      329330       
    288000   288            1.0005454     -0.034557678    7.5977148      1.5008114      10.393843      9.0985263     -2.796128       1370.096       60.037318      58.823081      58.823081     -0.19819393    -0.00026054914  0.094781441   -0.059815202    0.026746082    0.070595349    2387.9658      329273.95    
    292000   292            0.99873873    -0.0080765506   7.5998399      1.4981015      10.395287      9.0979414     -2.7954476      1554.7411      60.049155      58.831872      58.831872     -0.085734068   -0.028724783    0.090229199   -0.022517758   -0.066842467   -0.063632845    2421.3906      329275.95    
    296000   296            0.99794535    -0.010262336    7.5950061      1.4969114      10.395709      9.0919175     -2.8007032      2965.9161      60.060992      58.798178      58.798178     -0.10797068     0.15124462    -0.074060947   -0.033358902   -0.016657703    0.12089952     2454.9038      329288.85    
    300000   300            1.0033149     -0.063100734    7.5963382      1.5049657      10.393306      9.1013039     -2.7969682      895.56956      60.072829      58.798561      58.798561     -0.13152825    -0.033611159   -0.024162798   -0.0054303223   0.02819005    -0.057149402    2488.4288      329302.08    
    304000   304            1.0016021     -0.12339892     7.5981176      1.5023965      10.398044      9.1005142     -2.7999266      1124.3466      60.084666      58.776131      58.776131     -0.11842502    -0.17991128    -0.071860454    0.020176391    0.016256005    0.0047642675   2521.5336      329259.2     
    308000   308            0.99796599    -0.18705582     7.5969688      1.4969424      10.394494      9.0939111     -2.7975248      2665.0171      60.096503      58.790188      58.790188     -0.28763986    -0.19474145    -0.078786163    0.071260816   -0.056008237   -0.012095679    2554.9963      329262.71    
    312000   312            1.0020603      0.055895465    7.5971825      1.5030839      10.393847      9.1002664     -2.7966644      1279.4291      60.10834       58.784714      58.784714      0.010467932    0.049333727    0.10788474    -0.028303633   -0.040133766   -0.065621908    2587.8941      329193.4     
    316000   316            1.0013201     -0.036378715    7.5991069      1.5019734      10.39405       9.1010803     -2.7949434      1145.8006      60.120177      58.778633      58.778633     -0.1415034      0.10742584    -0.075058588   -0.021312635    0.075263366    0.16815593     2621.1684      329172.3     
    320000   320            1.0012239     -0.1266632      7.5940275      1.5018292      10.393126      9.0958567     -2.7990983      2375.648       60.132014      58.766859      58.766859     -0.20928025    -0.15979346    -0.01091589     0.05892905    -0.007791265    0.08389589     2654.5986      329170.23    
    324000   324            0.9997461     -0.094684715    7.5973024      1.4996125      10.397684      9.0969149     -2.8003813      2186.9437      60.143851      58.757818      58.757818     -0.038819933   -0.13895205    -0.10628216     0.062855052    0.034919982    0.021102226    2687.1862      329064.2     
    328000   328            1.0019923     -0.10007333     7.6022956      1.5029818      10.400273      9.1052773     -2.797977       348.94         60.155688      58.749348      58.749348     -0.17398534    -0.074670288   -0.051564344    0.037377118   -0.0086963062  -0.00083469135  2719.7852      328961.34    
    332000   332            0.99838976    -0.11922652     7.5988112      1.497578       10.395521      9.0963892     -2.79671        2404.5919      60.167526      58.768763      58.768763     -0.28987499    -0.12940458     0.061599995    0.0090857072  -0.029708655   -0.043405983    2752.5908      328884.85    
    336000   336            1.000184       0.074018185    7.5961448      1.5002694      10.392215      9.0964142     -2.7960702      2449.6854      60.179363      58.760857      58.760857     -0.090807268    0.19786714     0.11499468    -0.021555367    0.10443863    -0.0085159714   2785.774       328853.98    
    340000   340            1.0014917      0.048481419    7.6036324      1.5022309      10.398077      9.1058632     -2.7944446      367.15999      60.1912        58.758542      58.758542      0.029195747   -0.025103542    0.14135205     0.0072607762   0.0054830909  -0.014932978    2818.7775      328802.11    
    344000   344            1.0012241     -0.11221186     7.5994837      1.5018295      10.396194      9.1013132     -2.7967101      1445.541       60.203037      58.743677      58.743677     -0.28557315    -0.030740635   -0.020321806   -0.018535351   -0.036416711    0.079408494    2852.0608      328782.92    
    348000   348            0.99989743    -0.07540412     7.5975495      1.4998395      10.395112      9.097389      -2.7975626      2382.5226      60.214874      58.726037      58.726037     -0.24068095     0.079672994   -0.065204403    0.03059178    -0.016494477    0.022893704    2884.8345      328705.34    
    352000   352            0.99788704    -0.091776956    7.5983927      1.4968239      10.395895      9.0952166     -2.7975021      2923.3942      60.226711      58.730755      58.730755     -0.21605064     0.033900235   -0.09318046    -0.075892738    0.0042444167  -0.019920504    2918.3457      328711.85    
    356000   356            1.0000948     -0.16181692     7.6044693      1.5001355      10.399722      9.1046048     -2.7952531      856.41654      60.238548      58.741363      58.741363     -0.25029741    -0.076027947   -0.1591254     -0.012897739    0.018106685    0.12037028     2951.6294      328692.13    
    360000   360            0.99727961    -0.052399189    7.6025743      1.4959128      10.396441      9.0984871     -2.7938669      2288.9846      60.250385      58.723924      58.723924     -0.14639098    -0.063882928    0.053076344   -0.023549484    0.006213405    0.0051957383   2984.7365      328652.66    
    364000   364            1.0014599     -0.061593788    7.5956333      1.5021832      10.39158       9.0978165     -2.7959463      2488.943       60.262222      58.732337      58.732337     -0.16962133    -0.012002398   -0.0031576366  -0.017578245    0.026666493    0.0029996642   3018.0008      328630.43    
    368000   368            0.99798492     0.002172827    7.6054591      1.4969707      10.397663      9.1024298     -2.7922042      1501.0378      60.274059      58.712997      58.712997     -0.10248699     0.064228338    0.044777131   -0.13465592     0.038194316   -0.035107496    3050.8714      328565.59    
    372000   372            0.9990251     -0.011935917    7.6025989      1.498531       10.398977      9.1011299     -2.7963785      1845.6429      60.285896      58.687421      58.687421     -0.018256664    0.081418404   -0.098969491   -0.085343051   -0.023725931    0.061550171    3083.9821      328527       
    376000   376            0.9988696      0.0098361232   7.5985305      1.4982978      10.394852      9.0968283     -2.796321       2866.1684      60.297733      58.692831      58.692831     -0.051942206   -0.021787702    0.10323828    -0.06839542    -0.011255712   -0.076051518    3117.0101      328479.81    
    380000   380            1.0017154     -0.0072260835   7.5999464      1.5025664      10.394685      9.1025128     -2.7947386      1633.1734      60.30957       58.704618      58.704618     -0.1162037      0.048357846    0.046167603   -0.066486612   -0.00602635    -0.039264657    3150.6076      328492.3     
    384000   384            1.0022348     -0.095817411    7.6000374      1.5033456      10.394595      9.103383      -2.7945575      1487.3698      60.321407      58.696597      58.696597     -0.27250438     0.05163789    -0.066585743    0.046325636   -0.028007817    0.003323361    3183.5549      328436.75    
    388000   388            0.99819241    -0.062810811    7.5997097      1.497282       10.392275      9.0969917     -2.7925656      2980.3992      60.333244      58.700768      58.700768     -0.13036041    -0.098057859    0.039985839    0.066059816    0.017350975    0.057709853    3216.925       328424.83    
    392000   392            1.0007915      0.034166605    7.6016603      1.5011806      10.394344      9.1028408     -2.7926834      1710.2132      60.345081      58.694804      58.694804     -0.044924341    0.16282089    -0.015396733   -0.066810299    0.065159906    0.052303246    3249.9269      328375.27    
    396000   396            1.0026681     -0.11769839     7.5966089      1.5039956      10.392367      9.1006045     -2.7957581      2265.9441      60.356918      58.680967      58.680967     -0.163427      -0.019654262   -0.1700139      0.0063221549   0.027825848    0.028543445    3283.852       328418.37    
    400000   400            0.99803481    -0.028214251    7.5944597      1.4970456      10.391953      9.0915053     -2.7974936      4373.1983      60.368755      58.659123      58.659123     -0.1953522      0.047850104    0.062859346    0.0042292695   0.034530713   -0.034834691    3317.3297      328415.64    
    404000   404            1.0006323     -0.082686426    7.5989233      1.5009418      10.393263      9.0998652     -2.7943397      2535.2384      60.380592      58.672763      58.672763     -0.30321832     0.13205593    -0.076896886    0.048562481   -0.013999556    0.02605518     3350.3918      328371.57    
    408000   408            1.0022384     -0.11545676     7.5999177      1.5033509      10.395914      9.1032686     -2.7959965      1818.3104      60.392429      58.652183      58.652183     -0.24587547     0.055164698   -0.15565951     0.059527061    0.056424083   -0.023265797    3383.9641      328377.23    
    412000   412            0.99788671     0.057729601    7.597007       1.4968234      10.39254       9.0938304     -2.7955334      4001.0563      60.404266      58.643563      58.643563     -0.081937674    0.1107362      0.14439028    -0.078297556   -0.039009528    0.056755487    3417.1567      328345.63    
    416000   416            1.0015704     -0.087047079    7.5984029      1.502349       10.391571      9.1007519     -2.7931681      2489.0398      60.416103      58.673115      58.673115     -0.28268478     0.030625731   -0.0090821831   0.019347292    0.021391514   -0.042120125    3450.5493      328333.03    
    420000   420            0.99966778    -0.025497939    7.6014628      1.499495       10.393759      9.1009579     -2.7922959      2494.5139      60.42794       58.661075      58.661075     -0.18406581     0.082861603    0.024710389    0.054147704   -0.011982931    0.0090459258   3483.8192      328308.48    
    424000   424            0.99795541    -0.069803674    7.5995862      1.4969265      10.392023      9.0965127     -2.7924363      3549.9912      60.439777      58.657211      58.657211     -0.13340843     0.042738714   -0.1187413      0.037413667   -0.065919567    0.0019830044   3517.2344      328297.33    
    428000   428            0.99784605    -0.012209838    7.5976218      1.4967624      10.391167      9.0943843     -2.7935453      4081.0145      60.451614      58.638788      58.638788     -0.07855335     0.076782048   -0.034858212   -0.051176825   -0.027237591    0.069390508    3550.746       328294.68    
    432000   432            1.0005177     -0.030533509    7.6031534      1.5007699      10.395678      9.1039233     -2.792525       1976.6691      60.463451      58.635313      58.635313     -0.059355166    0.033211699   -0.065457061    0.061156502   -0.027255895    0.070366792    3583.5471      328226.37    
    436000   436            0.99735208    -0.060584085    7.6078279      1.4960215      10.398681      9.1038494     -2.7908529      2045.5927      60.475288      58.641469      58.641469     -0.1971316     -0.065930078    0.08130942     0.076375453   -0.026477855    0.01373629     3616.8647      328205.58    
    440000   440            0.9968949     -0.089590997    7.6007931      1.4953357      10.392459      9.0961288     -2.7916662      3838.538       60.487125      58.638945      58.638945     -0.19299448    -0.016187415   -0.059591096   -0.050160943   -0.048662009    0.067584902    3650.2686      328192.33    
    444000   444            0.99860374    -0.1401818      7.6055286      1.497899       10.397348      9.1034276     -2.7918198      2242.9689      60.498962      58.626511      58.626511     -0.16760126    -0.066750019   -0.18619412    -0.075842158   -0.03848654     0.021697158    3683.4861      328162.1     
    448000   448            1.0016353     -0.03205119     7.6031893      1.5024463      10.396554      9.1056355     -2.7933643      1795.1838      60.510799      58.615925      58.615925     -0.10926604     0.024383654   -0.011271182    0.029978792    0.09701146     0.027756704    3716.8842      328147.78    
    452000   452            1.0008944     -0.082688659    7.5992215      1.5013349      10.392209      9.1005564     -2.7929874      2992.4939      60.522636      58.599715      58.599715     -0.16654308     0.11792329    -0.19944619    -0.019988144   -0.087396695   -0.039489071    3750.1436      328120.97    
    456000   456            0.99543163    -0.041544031    7.6017815      1.4931408      10.393245      9.0949224     -2.7914636      4318.0663      60.534473      58.611807      58.611807     -0.19551091     0.10405215    -0.033173328   -0.0064418431  -0.010331191   -0.025072431    3783.2345      328079.44    
    460000   460            1.0014142      0.016435711    7.5996213      1.5021146      10.393783      9.1017359     -2.794162       2828.4182      60.54631       58.587631      58.587631     -0.070508295    0.084814604    0.035000822    0.040211838    0.02148972    -0.065449482    3816.5676      328058.88    
    464000   464            1.0011984     -0.14116454     7.6025142      1.501791       10.395374      9.1043052     -2.7928594      2299.781       60.558147      58.589215      58.589215     -0.26918723    -0.085137336   -0.06916907     0.065579087    0.052870795    0.022858872    3849.4862      328002.77    
    468000   468            0.99876982    -0.23650114     7.5973996      1.4981481      10.390838      9.0955477     -2.7934383      4328.357       60.569984      58.578228      58.578228     -0.36824963    -0.12198246    -0.21927135     0.049528443   -0.038137519    0.036927267    3882.4066      327947.22    
    472000   472            0.99996384    -0.081449316    7.6001453      1.4999391      10.395174      9.1000844     -2.7950282      3356.2142      60.581821      58.571553      58.571553     -0.24633341     0.068705015   -0.066719557    0.069008432   -0.0317949     -0.019334555    3915.4732      327904.29    
    476000   476            1.0004876     -0.15204706     7.601148       1.5007248      10.393817      9.1018728     -2.7926691      3002.7923      60.593658      58.575668      58.575668     -0.30143326    -0.0047927536  -0.14991515    -0.024863622   -0.099719334    0.026304841    3948.835       327886.04    
    480000   480            1.0005677     -0.10030823     7.6026376      1.5008449      10.393023      9.1034825     -2.7903855      2688.8681      60.605495      58.578448      58.578448     -0.18422664    -0.09070186    -0.025996191   -0.0056705683  -0.055624885    0.1376633      3981.8758      327841.11    
    484000   484            0.99936437     0.069343012    7.6083563      1.4990399      10.396064      9.1073963     -2.787708       1857.9049      60.617332      58.580461      58.580461     -0.027085779    0.094242578    0.14087224    -0.015002215   -0.040724736   -0.10642178     4015.4657      327841.21    
    488000   488            0.99801714    -0.022290986    7.601848       1.4970191      10.393984      9.0988671     -2.7921359      3835.8174      60.629169      58.547583      58.547583     -0.15127159     0.024818819    0.059579814    0.075172832   -0.022706669    0.032083824    4049.2408      327855.75    
    492000   492            1.0010959     -0.10871325     7.5997709      1.5016372      10.395835      9.1014081     -2.7960644      3312.6452      60.641006      58.552119      58.552119     -0.2425624     -0.0097390775  -0.073838278   -0.083367163    0.027932714   -0.099099335    4082.8176      327853.57    
    496000   496            1.0013011      0.12718394     7.6098344      1.501945       10.400157      9.1117794     -2.7903222      1023.0879      60.652843      58.566031      58.566031      0.063663291    0.17748        0.14040853    -0.036645875   -0.058532691    0.047759006    4116.1915      327834.74    
    500000   500            1.0020938     -0.0052603908   7.6048599      1.5031341      10.394997      9.1079939     -2.7901376      1929.1253      60.66468       58.556196      58.556196     -0.17347309     0.10677078     0.050921134   -0.069030306   -0.058525414    0.002144647    4149.5655      327815.68    
    504000   504            0.99861803    -0.075735499    7.6044582      1.4979204      10.39335       9.1023786     -2.7888918      3248.0486      60.676517      58.55561       58.55561      -0.27935215     0.076291058   -0.024145403   -0.070413013    0.041409578   -0.10958237     4183.0264      327803.2     
    508000   508            0.99615996     0.0069855606   7.6028462      1.4942333      10.39747       9.0970795     -2.7946234      4498.0607      60.688354      58.523082      58.523082     -0.18405558     0.034128043    0.17088422    -0.067617695   -0.022827229   -0.050691558    4216.6906      327806.19    
    512000   512            0.99882665     0.0094143445   7.6041087      1.4982334      10.396589      9.1023421     -2.79248        3360.2394      60.700191      58.517691      58.517691     -0.099361912    0.013101598    0.11450335    -0.19961899     0.010505986    0.0027064467   4250.2009      327796.74    
    516000   516            1.0002064     -0.071247692    7.6054653      1.500303       10.395627      9.1057683     -2.7901619      2636.7848      60.712028      58.535997      58.535997     -0.17323026    -0.050174576    0.0096617551   0.024487355    0.025873234   -0.028098204    4284.2307      327826.68    
    520000   520            0.99749879    -0.19454442     7.601156       1.4962416      10.39464       9.0973975     -2.7934837      4579.3961      60.723865      58.513232      58.513232     -0.20503504    -0.23726672    -0.14133149    -0.029501106    0.016174054    0.0087622515   4317.7248      327814.96    
    524000   524            0.99904761    -0.17813934     7.6009904      1.4985648      10.395082      9.0995552     -2.7940916      4143.764       60.735702      58.499088      58.499088     -0.33489708    -0.0089889765  -0.19053196    -0.14297162     0.036628547    0.028011892    4351.1904      327800.75    
    528000   528            0.99726943    -0.012177662    7.6069096      1.4958975      10.398435      9.1028071     -2.7915258      3461.7113      60.747539      58.499465      58.499465     -0.13428233     0.070299676    0.027449666    0.016454485   -0.12525592     0.066440533    4384.4683      327772.22    
    532000   532            0.99731622     0.020516681    7.6076454      1.4959677      10.397109      9.1036131     -2.7894634      3330.1758      60.759376      58.505613      58.505613     -0.14866651     0.070522784    0.13969377    -0.028432232   -0.028984639    0.078219233    4418.1978      327777.12    
    536000   536            0.999189      -0.11255701     7.6010304      1.4987769      10.393987      9.0998073     -2.7929563      4240.7233      60.771213      58.496698      58.496698     -0.073313645   -0.11317016    -0.15118723    -0.014815816   -0.0024507598  -0.028178622    4451.2097      327728.62    
    540000   540            1.0033698     -0.051724608    7.597643       1.505048       10.391372      9.1026911     -2.7937294      3639.063       60.78305       58.470485      58.470485     -0.25827616     0.017986428    0.085115903    0.0132595      0.049127614    0.15513938     4484.6649      327712.74    
    544000   544            1.0014344     -0.078894294    7.6054528      1.5021449      10.396064      9.1075976     -2.7906108      2582.5443      60.794887      58.481599      58.481599     -0.07712096    -0.016337719   -0.1432242      0.0061279921  -0.14513885    -0.0028453971   4517.8597      327677.71    
    548000   548            0.99934483    -0.11870642     7.5995601      1.4990106      10.393114      9.0985707     -2.7935542      4671.3554      60.806724      58.481921      58.481921     -0.24079602     0.012875288   -0.12819852     0.0039065248   0.0070448792  -0.08110799     4551.0623      327643.27    
    552000   552            1.0018525     -0.069101646    7.6017019      1.5027721      10.395774      9.1044739     -2.7940722      3390.3424      60.818561      58.454474      58.454474     -0.16025168     0.058257363   -0.10531062     0.027070581   -0.017088387    0.029357452    4584.5799      327631.36    
    556000   556            0.99958065    -0.16887314     7.6026299      1.4993643      10.395615      9.1019942     -2.792985       4001.7624      60.830398      58.472175      58.472175     -0.34294713    -0.046223744   -0.11744855    -0.021052418    0.0071189769   0.025898278    4618.2105      327627.15    
    560000   560            0.99658712    -0.060714651    7.6028847      1.4948741      10.397425      9.0977588     -2.7945405      5011.2305      60.842235      58.436075      58.436075     -0.29193676     0.050064654    0.059728157    0.057018723    0.00092858656  0.11731221     4652.3756      327660.17    
    564000   564            0.99958441    -0.15841384     7.6048795      1.49937        10.400315      9.1042495     -2.7954359      3596.9041      60.854072      58.447595      58.447595     -0.29116208    -0.098548029   -0.085531416   -0.07725917    -0.051379706    0.070037422    4685.8099      327641.13    
    568000   568            1.0002907     -0.01585204     7.6020197      1.5004294      10.396388      9.1024492     -2.7943681      4054.4687      60.865909      58.436772      58.436772     -0.17640061     0.03606208     0.092782409   -0.038445686    0.14148048     0.042075488    4719.5546      327643.45    
    572000   572            1.0018891      0.080210575    7.6012172      1.502827       10.394325      9.1040442     -2.7931076      3743.4987      60.877746      58.442512      58.442512     -0.18399077     0.19855296     0.22606953     0.025416796    0.030347752   -0.0025609076   4753.0961      327631.24    
    576000   576            0.99904958    -0.12357857     7.6129662      1.4985677      10.400696      9.1115339     -2.7877302      2106.288       60.889583      58.436476      58.436476     -0.26075705    -0.08744234    -0.022536312    0.042995388    0.093886089    0.076064998    4786.6412      327618.99    
    580000   580            1.0008051     -0.053083036    7.6002798      1.501201       10.397457      9.1014808     -2.7971769      4427.6202      60.90142       58.41564       58.41564      -0.28526281     0.19218934    -0.066175637   -0.022696758   -0.047080533    0.014812847    4820.1612      327604.75    
    584000   584            0.9991968     -0.025244309    7.6009394      1.4987886      10.396187      9.099728      -2.7952477      4874.5721      60.913257      58.422392      58.422392     -0.12290489     0.05811594    -0.010943982    0.061387229    0.0050002605  -0.093527663    4853.6266      327586.55    
    588000   588            1.0029657     -0.028979281    7.6038386      1.5044419      10.395113      9.1082805     -2.7912745      2994.3682      60.925094      58.423073      58.423073     -0.014670596   -0.074746394    0.0024791459   0.011731475    0.017314854    0.13179417     4887.3088      327582.68    
    592000   592            0.99878696    -0.0016175773   7.6018573      1.4981738      10.393415      9.1000311     -2.7915575      4909.7875      60.936931      58.412929      58.412929     -0.25229736     0.200898       0.046546636    0.067402798   -0.10707312    -0.014031284    4921.1351      327587.99    
    596000   596            0.99962132    -0.14073256     7.6035888      1.4994254      10.393642      9.1030141     -2.7900536      4288.1942      60.948768      58.41946       58.41946      -0.30074351    -0.098086031   -0.023368147   -0.032889333   -0.018870205    0.01245134     4955.1307      327603.98    
    600000   600            1.0028702     -0.11270036     7.6023566      1.5042987      10.393791      9.1066553     -2.7914344      3518.0829      60.960605      58.415434      58.415434     -0.28218581     0.015568432   -0.071483711   -0.087565402    0.058140744    0.038801833    4989.1228      327619.06    
    604000   604            0.99703917     0.088965752    7.6025373      1.4955521      10.392749      9.0980894     -2.7902119      5505.1448      60.972442      58.395559      58.395559     -0.085557177    0.24992307     0.10253136    -0.067985472    0.047840371    0.059643801    5023.151       327635.86    
    608000   608            0.99965024    -0.1037141      7.6064438      1.4994687      10.396936      9.1059126     -2.7904924      3790.894       60.984279      58.412381      58.412381     -0.32497794    -0.011600787    0.025436413   -0.069731109   -0.048285424   -0.045419444    5057.0523      327643.76    
    612000   612            1.0012362     -0.096977942    7.6037028      1.5018477      10.394669      9.1055505     -2.7909663      3924.4731      60.996116      58.393777      58.393777     -0.32730341     0.093763216   -0.057393629   -0.049947407    0.040754215    0.0050391592   5090.916       327648.69    
    616000   616            0.99674399    -0.061298189    7.6020213      1.4951094      10.391918      9.0971307     -2.7898966      5878.8035      61.007953      58.394331      58.394331     -0.26062227     0.19766042    -0.12093272    -0.030207826    0.048144906    0.10035369     5124.5198      327636.51    
    620000   620            1.001765      -0.080575853    7.6042987      1.5026408      10.395072      9.1069395     -2.7907729      3716.7836      61.01979       58.391428      58.391428     -0.30450358     0.036510872    0.026265147    0.012031409   -0.058524663   -0.081905734    5158.1227      327623.98    
    624000   624            1.0021037     -0.13903387     7.6026963      1.5031489      10.392467      9.1058453     -2.7897708      4014.7753      61.031627      58.365544      58.365544     -0.26364886    -0.074564944   -0.078887817   -0.032883047   -0.0037591285  -0.0034541172   5192.2759      327645.92    
    628000   628            1.000287      -0.14545282     7.6005053      1.5004238      10.391938      9.1009291     -2.7914324      5177.5469      61.043464      58.368481      58.368481     -0.31366951     0.021506676   -0.14419564     0.016158643   -0.012934725   -0.096313967    5225.8338      327629.82    
    632000   632            1.0037218     -0.034321099    7.6056282      1.5055761      10.396466      9.1112043     -2.7908374      2908.1645      61.055301      58.363677      58.363677     -0.05642533     0.0085007954  -0.055038763    0.038229906    0.011131878   -0.090328493    5259.7527      327635.99    
    636000   636            1.0022718     -0.08858944     7.6020544      1.5034011      10.391333      9.1054555     -2.789279       4256.7747      61.067138      58.359126      58.359126     -0.27302922    -0.12448157     0.13174247     0.071305175    0.13476018    -0.0042970035   5293.508       327631.52    
    640000   640            0.99840749    -0.11831977     7.6045576      1.4976046      10.394005      9.1021622     -2.7894473      5054.6863      61.078975      58.354271      58.354271     -0.22748773    -0.055992761   -0.07147882    -0.031056671   -0.046801159   -0.11956095     5327.6291      327649.19    
    644000   644            0.99802779    -0.14455898     7.605606       1.4970351      10.395355      9.1026411     -2.7897485      4999.2752      61.090812      58.34759       58.34759      -0.32628512    -0.039739224   -0.067652609   -0.001795605   -0.0340155     -0.00059389799  5361.6009      327657.09    
    648000   648            1.0013923     -0.15439712     7.6077265      1.5020817      10.393661      9.1098082     -2.7859346      3431.8806      61.102649      58.372866      58.372866     -0.16927592    -0.052506924   -0.24140851    -0.036699706    0.018654503   -0.025616709    5395.6554      327669.49    
    652000   652            0.99788686     0.066446166    7.6068026      1.4968237      10.395297      9.1036263     -2.788494       4883.3103      61.114486      58.350427      58.350427     -0.090393825    0.16868096     0.12105137    -0.0036144894  -0.023539758    0.017351951    5429.2719      327654.89    
    656000   656            0.99827426    -0.096908502    7.6072944      1.4974048      10.393194      9.1046991     -2.7858998      4692.7082      61.126323      58.346748      58.346748     -0.30936795     0.044722417   -0.026079973   -0.00028636754  0.03650081    -0.045367652    5462.706       327629.13    
    660000   660            0.99970684     0.044451771    7.6085599      1.4995536      10.395768      9.1081135     -2.7872082      3975.2698      61.13816       58.349881      58.349881     -0.085501264    0.065337749    0.15351883    -0.013937526   -0.012972534   -0.11523907     5496.7449      327639.31    
    664000   664            1.0023146     -0.054338056    7.603983       1.5034653      10.391518      9.1074482     -2.7875347      4176.1512      61.149997      58.333036      58.333036     -0.22900215     0.047435475    0.018552508    0.094260486    0.018459979   -0.042714955    5530.1439      327611.05    
    668000   668            1.0001786     -0.15974569     7.598559       1.5002612      10.389293      9.0988202     -2.7907343      6177.6481      61.161834      58.324583      58.324583     -0.36357631     0.016840096   -0.13250085    -0.02031277     0.020966271   -0.01232111     5563.6831      327590.99    
    672000   672            0.99993587    -0.0081018154   7.6074443      1.4998972      10.394474      9.1073415     -2.7870293      4307.1119      61.173671      58.314305      58.314305     -0.2140689      0.014273645    0.17548981     0.0090136702   0.070323379    0.033193028    5597.6675      327596.83    
    676000   676            1.0004571     -0.11890813     7.6062023      1.500679       10.395018      9.1068813     -2.7888157      4463.2843      61.185508      58.308794      58.308794     -0.22503759    -0.076111065   -0.05557575     0.050659222   -0.10015009     0.048854835    5631.6633      327602.85    
    680000   680            0.99965481    -0.10425584     7.6026988      1.4994756      10.392147      9.1021744     -2.7894485      5578.9375      61.197345      58.311651      58.311651     -0.24998817    -0.022387304   -0.04039204    -0.050322868    0.02273481     0.050467803    5665.9312      327624.14    
    684000   684            1.0022003     -0.021253098    7.6102251      1.5032939      10.396215      9.113519      -2.7859894      3070.4838      61.209182      58.30425       58.30425      -0.084470575   -0.037115021    0.057826302   -0.070590771    0.038806925    0.019297508    5699.5443      327607.14    
    688000   688            0.99995581     0.039001772    7.6057177      1.4999271      10.393858      9.1056448     -2.7881403      4900.6708      61.221019      58.298102      58.298102     -0.076737448    0.22577963    -0.032036862   -0.10477198    -0.031894595    0.099089329    5733.953       327635.41    
    692000   692            0.99934616    -0.053927904    7.6067731      1.4990126      10.393286      9.1057857     -2.7865127      4921.4146      61.232856      58.303691      58.303691     -0.16466167    -0.035097277    0.037975234   -0.026389001    0.043634942    0.028361648    5767.7805      327629.94    
    696000   696            1.0023757     -0.020433335    7.6111298      1.5035568      10.396099      9.1146867     -2.7849689      2963.8989      61.244693      58.288573      58.288573     -0.25138167     0.06294377     0.1271379     -0.13214187     0.042597288   -0.0033454352   5802.175       327656.16    
    700000   700            1.0013361     -0.17204334     7.6086846      1.5019975      10.395972      9.1106821     -2.7872874      3921.3916      61.25653       58.291682      58.291682     -0.4109503     -0.13859162     0.03341189     0.0092332465   0.082836565    0.077846667    5835.9336      327645.99    
    704000   704            0.99965999    -0.031670614    7.6044923      1.4994833      10.393024      9.1039756     -2.7885319      5487.8212      61.268368      58.283803      58.283803     -0.12768374    -0.019039809    0.051711704    0.017100403   -0.052938602   -0.027585566    5869.9162      327648.05    
    708000   708            1.0004951      0.00075325977  7.6069619      1.5007361      10.393039      9.107698      -2.7860775      4699.1783      61.280205      58.268579      58.268579     -0.24289617     0.10646781     0.13868814    -0.068822089    0.00031623551 -0.018988188    5903.7982      327644.12    
    712000   712            1.0004875     -0.13303298     7.6116077      1.5007247      10.396094      9.1123324     -2.7844865      3706.3096      61.292042      58.278047      58.278047     -0.25880019    -0.043987297   -0.09631146     0.042690914    0.024220714    0.058956727    5937.6791      327639.8     
    716000   716            0.99756041    -0.12591193     7.609879       1.496334       10.396399      9.106213      -2.7865205      5141.7711      61.303879      58.266227      58.266227     -0.34094983    -0.011177251   -0.025608702   -0.0066895664  -0.061864696   -0.032466071    5971.5111      327632.46    
    720000   720            1.0009394     -0.064361702    7.6077965      1.5014024      10.393301      9.109199      -2.7855047      4517.8527      61.315716      58.260682      58.260682     -0.16000403     0.01355718    -0.046638255    0.012323429    0.018738824   -0.1428536      6005.1998      327617.01    
    724000   724            1.0030006     -0.074245484    7.610705       1.5044943      10.394827      9.1151993     -2.7841222      3215.2887      61.327553      58.285985      58.285985     -0.11435141    -0.059269724   -0.04911532    -0.063124634    0.16231859    -0.026421852    6039.1033      327613.01    
    728000   728            0.99805584    -0.00038066856  7.6095173      1.4970771      10.395819      9.1065945     -2.7863017      5212.1026      61.33939       58.251121      58.251121     -0.11034189     0.020678075    0.088521807    0.023295962   -0.015579815   -0.17473013     6073.1616      327617.04    
    732000   732            1.0003724     -0.10116946     7.6086775      1.5005519      10.394979      9.1092294     -2.7863017      4669.9751      61.351227      58.246237      58.246237     -0.2367206      0.043497281   -0.11028507     0.041341834    0.046546642   -0.062158054    6108.0986      327667.78    
    736000   736            1.0035391     -0.11150721     7.6064388      1.5053021      10.39219       9.1117409     -2.7857513      4152.8844      61.363064      58.254013      58.254013     -0.24513131     0.03656006    -0.12595039    -0.010381388    0.11870011    -0.075291792    6141.4116      327630.96    
    740000   740            1.0013345     -0.13373959     7.6016908      1.501995       10.388306      9.1036859     -2.7866152      6024.9661      61.374901      58.233859      58.233859     -0.1808507     -0.099391134   -0.12097694     0.050161541   -0.064668635    0.022246518    6175.6811      327644.92    
    744000   744            1.0024585     -0.08574636     7.608782       1.5036811      10.392556      9.1124631     -2.7837737      4094.9048      61.386738      58.240706      58.240706     -0.33598423     0.049935423    0.02880973     0.090655877    0.12521647     0.017487056    6209.4586      327632.4     
    748000   748            0.99971561     0.014729815    7.6076649      1.4995668      10.393847      9.1072317     -2.7861824      5328.9752      61.398575      58.224151      58.224151     -0.15119397     0.12446927     0.070914143   -0.035421506    0.0098658058  -0.014201555    6243.2559      327620.7     
    752000   752            0.99885435    -0.095356468    7.6069189      1.4982749      10.392989      9.1051938     -2.7860704      5841.2385      61.410412      58.221844      58.221844     -0.21811255     0.0022769714  -0.070233827    0.088934578   -0.00035395176 -0.032012537    6277.4764      327630.84    
    756000   756            0.99920016    -0.0084860749   7.6128809      1.4987936      10.394702      9.1116745     -2.7818215      4430.5327      61.422249      58.224953      58.224953     -0.031602088   -0.055781424    0.061925288    0.019441052    0.012762281   -0.011325225    6311.393       327624.74    
    760000   760            0.99775416    -0.11447607     7.6064851      1.4966246      10.390289      9.1031097     -2.783804       6417.1965      61.434086      58.213354      58.213354     -0.1539072     -0.040535652   -0.14898537    -0.12517826    -0.076495267   -0.015457855    6345.6295      327634.87    
    764000   764            0.99883816    -0.060455923    7.6082594      1.4982506      10.391427      9.10651       -2.7831675      5700.9133      61.445923      58.228973      58.228973     -0.26834896     0.048137038    0.038844155    0.033846779    0.081672028    0.13064545     6379.5469      327628.15    
    768000   768            1.0027298     -0.021560693    7.6075471      1.504088       10.392956      9.1116351     -2.7854087      4596.1462      61.45776       58.204023      58.204023     -0.064951553   -0.048400192    0.048669665    0.098735749    0.065308423   -0.08552429     6413.5758      327626.83    
    772000   772            0.9967123     -0.12644895     7.6095774      1.4950618      10.393976      9.1046392     -2.7843984      6228.7446      61.469597      58.19995       58.19995      -0.36036362     0.05633796    -0.0753212      0.082279591    0.059287083   -0.090031487    6447.2854      327608.95    
    776000   776            0.99705577     0.031096881    7.6078308      1.495577       10.394744      9.1034079     -2.7869135      6558.8011      61.481434      58.179183      58.179183     -0.18359352     0.091719602    0.18516457     0.037588961   -0.010698166   -0.14026487     6481.3658      327609.66    
    780000   780            1.0009783      0.01425612     7.6077403      1.5014608      10.392419      9.1092012     -2.7846787      5300.6535      61.493271      58.189371      58.189371     -0.14729543     0.12599829     0.064065503    0.093839383    0.024522027    0.086267433    6514.8704      327581.05    
    784000   784            1.0005018     -0.2070183      7.6100282      1.5007461      10.397059      9.1107743     -2.7870306      4998.7329      61.505108      58.174769      58.174769     -0.37806061    -0.13845658    -0.1045377      0.12443431     0.021970099   -0.018086297    6548.5617      327561.73    
    788000   788            0.99867113    -0.077618976    7.6070761      1.4980001      10.392986      9.1050761     -2.7859102      6336.5177      61.516945      58.170691      58.170691     -0.075341982   -0.044828612   -0.11268633    -0.021141083    0.068098983    0.023881636    6583.1068      327584.75    
    792000   792            1.0003939      0.027499022    7.6082961      1.5005842      10.393609      9.1088802     -2.7853133      5530.3929      61.528782      58.173666      58.173666      0.013324484    0.13825761    -0.069085024    0.0023031187  -0.0046033346  -0.041760111    6616.6498      327557.58    
    796000   796            1.0002402     -0.0055423047   7.6124132      1.5003537      10.397284      9.1127669     -2.7848712      4705.5411      61.540619      58.15962       58.15962      -0.17234381     0.071182629    0.084534266    0.11103111     0.047123212    0.067521206    6650.9607      327568.17    
    800000   800            0.99682857    -0.14622289     7.6132056      1.4952362      10.400282      9.1084419     -2.7870761      5735.4235      61.552456      58.154421      58.154421     -0.17339128    -0.19197153    -0.073305847    0.0064109061   0.059848689   -0.031423038    6684.9156      327560.86    
    804000   804            0.99933355    -0.068335759    7.6110944      1.4989937      10.395366      9.1100881     -2.784272       5414.1233      61.564293      58.14882       58.14882      -0.37919236     0.094104999    0.08008008     0.0078669288   0.005203942   -0.050043836    6718.8886      327554.18    
    808000   808            1.0012783      0.057286186    7.611304       1.5019109      10.395031      9.1132149     -2.7837271      4760.9159      61.57613       58.143173      58.143173     -0.11706029     0.15586935     0.1330495      0.050631851    0.085139962    0.04865379     6753.0272      327555.25    
    812000   812            0.99919236    -0.044679606    7.6100394      1.4987819      10.393946      9.1088213     -2.7839065      5803.8456      61.587967      58.150116      58.150116     -0.14653148     0.023674811   -0.01118215    -0.051945329   -0.043574886    0.041216605    6786.8844      327542.4     
    816000   816            0.99927173    -0.008523867    7.6058719      1.498901       10.391995      9.1047728     -2.7861228      6769.1393      61.599804      58.128139      58.128139     -0.078459535    0.074396898   -0.021508964    0.053444258   -0.035795789    0.036077131    6821.4925      327565.39    
    820000   820            1.0019328     -0.06918794     7.6123119      1.5028925      10.397659      9.1152045     -2.7853474      4465.666       61.611641      58.131684      58.131684     -0.24936909     0.10491264    -0.06310737     0.028659045   -0.070009477    0.0044308766   6855.5906      327563.46    
    824000   824            0.99682639    -0.055135835    7.61435        1.495233       10.397159      9.1095829     -2.7828093      5786.7885      61.623478      58.14438       58.14438      -0.17267039     0.01398771    -0.0067248234   0.038070533   -0.0071626879  -0.057878505    6890.4886      327599.25    
    828000   828            0.99991173     0.026717427    7.6089546      1.499861       10.395245      9.1088155     -2.7862902      6012.2307      61.635315      58.109586      58.109586     -0.10959792     0.074783109    0.11496709    -0.05903799     0.11479129     0.012372449    6924.393       327587.35    
    832000   832            1.0036804      0.053941388    7.6113854      1.5055139      10.396303      9.1168993     -2.784918       4239.2773      61.647152      58.105534      58.105534     -0.027822232    0.13388202     0.055764372   -0.086638971    0.07710723     0.04186957     6958.9005      327603.63    
    836000   836            1.0010008     -0.08598502     7.6136589      1.5014945      10.396194      9.1151534     -2.7825348      4684.7341      61.658989      58.119913      58.119913     -0.34383816     0.037959606    0.047923496    0.058165605    0.016228487    0.0019849032   6993.5883      327627.86    
    840000   840            1.0007831     -0.29768395     7.6092017      1.5011681      10.393331      9.1103698     -2.7841289      5817.4966      61.670826      58.113945      58.113945     -0.52183563    -0.12854187    -0.24267435     0.029184857   -0.084728737    0.069570894    7027.8322      327630.85    
[...]
  39768000   39768          1.002531      -0.28821101     7.7612155      1.5037898      10.410162      9.2650053     -2.6489465      314884.46      176.86861      34.908569      34.908569     -0.72788153    -0.16005788     0.023306381   -0.091107286   -0.069306071    0.087299458    311909.27      1819.6276    
  39772000   39772          0.99952776    -0.22671521     7.7613617      1.499285       10.409753      9.2606467     -2.6483911      315894.39      176.88045      34.898808      34.898808     -0.81043413     0.090119827    0.040168666    0.015080298   -0.039887156   -0.038217976    311939.49      1788.2481    
  39776000   39776          0.99890969    -0.15650962     7.7593312      1.4983579      10.408263      9.2576891     -2.6489314      316589.1       176.89229      34.89001       34.89001      -0.58249357     0.21741397    -0.10444927    -0.011872725   -0.06861386     0.055714846    311969.73      1756.8689    
  39780000   39780          1.0025509     -0.19638922     7.7586         1.5038197      10.407903      9.2624197     -2.6493029      315545.44      176.90413      34.896914      34.896914     -0.61277405     0.0015434088   0.022062995   -0.11550413     0.079964041   -0.071935449    312000.49      1725.4929    
  39784000   39784          0.99693978    -0.31777176     7.7586784      1.495403       10.4067        9.2540814     -2.6480216      317454.81      176.91596      34.905662      34.905662     -0.83367762    -0.10021232    -0.019425352   -0.15590858     0.10428399    -0.028947162    312030.57      1694.1133    
  39788000   39788          1.0015119     -0.35329655     7.7581319      1.5022612      10.408974      9.260393      -2.6508419      316055.76      176.9278       34.893816      34.893816     -0.872162      -0.11147683    -0.076250829    0.0026457443   0.14321312    -0.042072167    312060.81      1662.7348    
  39792000   39792          1.0011028     -0.19632453     7.7594179      1.5016476      10.409809      9.2610655     -2.6503915      315931.56      176.93964      34.895927      34.895927     -0.76025598     0.012406446    0.15887595     0.010058038    0.041130725   -0.14047517     312090.84      1631.3554    
  39796000   39796          0.99932567    -0.29621657     7.7537978      1.4989819      10.404015      9.2527796     -2.650217       317826.87      176.95147      34.894434      34.894434     -0.71158966    -0.046991382   -0.13006867    -0.026369087   -0.010469282   -0.036449781    312121         1599.977     
  39800000   39800          0.99844493    -0.21733855     7.7588765      1.4976608      10.408402      9.2565372     -2.6495255      317004.96      176.96331      34.894255      34.894255     -0.68276056     0.00655724     0.024187662   -0.00095321355 -0.0064558998   0.059525715    312151.1       1568.5985    
  39804000   39804          1.0004949     -0.24047462     7.7609656      1.5007356      10.409501      9.2617012     -2.6485353      315865.04      176.97515      34.900446      34.900446     -0.66411709     0.086783502   -0.14409028    -0.017654167    0.016695756   -0.0031068764   312181.1       1537.2198    
  39808000   39808          0.99964855    -0.31083908     7.7597642      1.4994662      10.409375      9.2592304     -2.6496106      316448.91      176.98698      34.897735      34.897735     -0.72601618    -0.14039063    -0.066110423   -0.01749061     0.042141077    0.069691352    312211.82      1505.8448    
  39812000   39812          0.9986276     -0.417771       7.7565067      1.4979348      10.406296      9.2544415     -2.6497895      317555.85      176.99882      34.898837      34.898837     -0.85937683    -0.24084192    -0.15309425    -0.13029879    -0.079402765   -0.022682156    312242.31      1474.4688    
  39816000   39816          1.0020767     -0.32637602     7.761631       1.5031084      10.412378      9.2647394     -2.6507471      315257.32      177.01066      34.895945      34.895945     -0.83506171    -0.085155692   -0.05891066     0.0019413575   0.039772548   -0.016193015    312272.26      1443.0906    
  39820000   39820          1.001894      -0.21873393     7.7546356      1.5028343      10.41031       9.2574699     -2.6556742      316924.58      177.0225       34.874611      34.874611     -0.6792294      0.030971019   -0.007943394   -0.0075409488   0.021052247    0.081587417    312303.07      1411.7165    
  39824000   39824          0.99894015    -0.23424828     7.757889       1.4984036      10.409693      9.2562926     -2.651804       317216.5       177.03433      34.877425      34.877425     -0.60930455     0.058185954   -0.15162623     0.03275466    -0.02899044     0.056452228    312333.18      1380.3395    
  39828000   39828          1.0010786     -0.24635891     7.7595962      1.5016113      10.409588      9.2612075     -2.6499922      316131.93      177.04617      34.884918      34.884918     -0.69929985     0.0085764329  -0.048353323   -0.14305022     0.046127564    0.068117818    312363.7       1348.9645    
  39832000   39832          1.0007126     -0.28052853     7.7626133      1.5010623      10.413739      9.2636756     -2.6511255      315601.72      177.05801      34.883386      34.883386     -0.79677435    -0.0096073032  -0.035203938   -0.018906649    0.11090811     0.014696288    312393.41      1317.5862    
  39836000   39836          0.99832244    -0.29078082     7.7601854      1.497477       10.410722      9.2576625     -2.6505365      316986.08      177.06984      34.884941      34.884941     -0.83185804    -0.020275062   -0.020209366   -0.013349424   -0.031590761   -0.14769802     312423.62      1286.2103    
  39840000   39840          1.0017691     -0.28425248     7.7592306      1.502647       10.411316      9.2618775     -2.6520855      316058.5       177.08168      34.878507      34.878507     -0.76805342    -0.022832827   -0.0618712      7.3547335e-05 -0.010676357   -0.12415506     312454.35      1254.8367    
  39844000   39844          1.0000969     -0.17779518     7.7640298      1.5001388      10.413268      9.2641686     -2.6492384      315568.33      177.09352      34.89677       34.89677      -0.5907505     -0.026138999    0.083503958    0.032970601   -0.00095810384 -0.011716127    312484.85      1223.4624    
  39848000   39848          1.0035825     -0.17275579     7.7546504      1.505367       10.405125      9.2600175     -2.6504749      316529.91      177.10535      34.873959      34.873959     -0.58119889     0.055057764    0.0078737648  -0.11488516    -0.065013878   -0.032746349    312515.44      1192.0886    
  39852000   39852          1.00118       -0.17802996     7.7598182      1.5017633      10.407945      9.2615815     -2.6481268      316204.27      177.11719      34.87988       34.87988      -0.56831925     0.052593353   -0.018363984    0.0075602616  -0.061576342   -0.083481813    312545.58      1160.7133    
  39856000   39856          1.0032238     -0.21997707     7.7625048      1.504829       10.409819      9.2673339     -2.6473137      314929.34      177.12903      34.879559      34.879559     -0.73403769     0.097300396   -0.023193908    0.027996347   -0.059644946   -0.069062248    312576.09      1129.3395    
  39860000   39860          0.99953653    -0.2606405      7.7592821      1.4992982      10.408555      9.2585803     -2.6492726      316933.42      177.14087      34.878631      34.878631     -0.77002        0.020426103   -0.032327601   -0.041071468   -0.075191055    0.040256137    312606.73      1097.9664    
  39864000   39864          0.99957768    -0.30047041     7.7584255      1.4993599      10.41023       9.2577854     -2.6518049      317139.51      177.1527       34.866562      34.866562     -0.83353819    -0.042696845   -0.025176184    0.024603653    0.025405898   -0.12574816     312637.38      1066.5935    
  39868000   39868          1.0030068     -0.24210242     7.7599757      1.5045035      10.409365      9.2644792     -2.6493892      315652.88      177.16454      34.86678       34.86678      -0.72618937     0.045955226   -0.046073104   -0.050478729    0.018287564   -0.033106968    312667.8       1035.22      
  39872000   39872          1.0013495     -0.28017481     7.7567753      1.5020176      10.409094      9.2587929     -2.6523186      316962.99      177.17638      34.866356      34.866356     -0.73399178    -0.024035391   -0.082497258   -0.028943841   -0.04923382    -0.12122744     312698.35      1003.847     
  39876000   39876          0.99917207    -0.16813907     7.7573766      1.4987515      10.407091      9.2561281     -2.6497146      317591.02      177.18821      34.873909      34.873909     -0.71214005     0.072249413    0.13547344    -0.060773329   -0.026071317    0.053523032    312728.89      972.47422    
  39880000   39880          0.99950665    -0.35955782     7.7637689      1.4992533      10.413915      9.2630223     -2.6501466      316061.95      177.20005      34.869213      34.869213     -0.80418722    -0.10161846    -0.17286777     0.044606701    0.11687779    -0.064773206    312758.92      941.10006    
  39884000   39884          1.0024814     -0.22643686     7.7630915      1.5037155      10.411495      9.266807      -2.6484035      315231.62      177.21189      34.871122      34.871122     -0.7837082      0.074435694    0.029961926   -0.022942792    0.0021063928   0.051475499    312789.28      909.72711    
  39888000   39888          0.9977557     -0.30627376     7.7612021      1.4966269      10.409833      9.257829      -2.6486314      317285.38      177.22372      34.874003      34.874003     -0.81929765    -0.2145663      0.11504268    -0.053448418    0.074942805   -0.012284307    312819.57      878.3542     
  39892000   39892          0.99940763    -0.20660734     7.7606273      1.4991048      10.408835      9.2597321     -2.6482076      316881.79      177.23556      34.869104      34.869104     -0.9295919      0.16778029     0.14198959     0.0069371772   0.027584232   -0.07338866     312849.8       846.9813     
  39896000   39896          1.0005983     -0.225471       7.7629417      1.5008908      10.411627      9.2638325     -2.6486857      315982.89      177.2474       34.869817      34.869817     -0.71673887     0.0057038295   0.034622037   -0.062351676   -0.062929954    0.12702544     312880.18      815.60905    
  39900000   39900          0.99889399    -0.26191297     7.7609782      1.4983343      10.41048       9.2593126     -2.6495021      317029.08      177.25924      34.864397      34.864397     -0.80957459     0.054564125   -0.03072846    -0.17965102    -0.0033511679  -0.014088652    312910.74      784.23744    
  39904000   39904          1.0011106     -0.28747369     7.7568398      1.5016593      10.409121      9.2584991     -2.6522809      317237.33      177.27107      34.854666      34.854666     -0.88692918    -0.03429317     0.058801291   -0.074409285    0.042843218   -0.13966088     312941.19      752.86572    
  39908000   39908          0.99850557    -0.21641907     7.7543369      1.4977517      10.406833      9.2520887     -2.6524965      318711.19      177.28291      34.853661      34.853661     -0.77831117     0.053260747    0.075793211   -0.061020072   -0.04771188    -0.081629809    312971.5       721.49388    
  39912000   39912          1.0007004     -0.2150244      7.7583934      1.5010439      10.409058      9.2594373     -2.6506645      317078.54      177.29475      34.854993      34.854993     -0.76804113     0.077752195    0.045215737   -0.018619087    0.12904716    -0.077558815    313001.65      690.1219     
  39916000   39916          0.99978208    -0.29986091     7.7621911      1.4996665      10.41252       9.2618576     -2.6503289      316558.18      177.30658      34.859933      34.859933     -0.65008819    -0.24286785    -0.0066266857   0.0033586772  -0.096879648   -0.051345698    313032.31      658.75123    
  39920000   39920          0.99816855    -0.42659796     7.7566878      1.4972462      10.407854      9.253934      -2.6511664      318373.9       177.31842      34.860054      34.860054     -0.96642961    -0.2112019     -0.10216238    -0.035740156   -0.0097122604  -0.11029936     313062.57      627.3799     
  39924000   39924          1.0006707     -0.30464492     7.7608585      1.5009994      10.411324      9.2618579     -2.6504657      316610.66      177.33026      34.854818      34.854818     -0.84953941     0.072214291   -0.13660963    -0.044288095    0.095217452   -0.12239063     313093.11      596.00932    
  39928000   39928          0.99946528    -0.090257075    7.7610188      1.4991913      10.409829      9.2602101     -2.6488101      317007.26      177.34209      34.851732      34.851732     -0.62256138     0.18046637     0.17132379     0.064228301   -0.039908555    0.010586953    313123.15      564.63802    
  39932000   39932          0.99891243    -0.43914521     7.755722       1.498362       10.407874      9.254084      -2.6521521      318415.55      177.35393      34.843364      34.843364     -0.91800878    -0.097652928   -0.30177393    -0.15132517     0.02331719     0.014844868    313153.75      533.26792    
  39936000   39936          1.0021419     -0.27260427     7.7599805      1.5032062      10.410022      9.2631867     -2.6500413      316385.95      177.36577      34.846072      34.846072     -0.7841601     -0.034047833    0.00039512984 -0.091537844    0.070997474   -0.16129903     313184.21      501.89777    
  39940000   39940          1.0003713     -0.13878156     7.7608475      1.5005503      10.410473      9.2613978     -2.6496256      316816.39      177.37761      34.844952      34.844952     -0.65974303     0.16244882     0.08094953     0.033585344    0.10516979     0.049088697    313214.69      470.52783    
  39944000   39944          1.0019409     -0.21214831     7.7545851      1.5029047      10.406722      9.2574899     -2.6521364      317723.06      177.38944      34.839682      34.839682     -0.64302505     0.0017393834   0.0048407437  -0.081443059    0.02644922    -0.089324975    313245.48      439.1585     
  39948000   39948          0.99589457    -0.30151184     7.7570675      1.4938352      10.406734      9.2509028     -2.6496661      319238.17      177.40128      34.845184      34.845184     -0.94937364     0.092559348   -0.047721228   -0.069801847    0.039137332   -0.10291745     313275.99      407.78891    
  39952000   39952          1.000525      -0.34316781     7.7586097      1.5007808      10.407282      9.2593905     -2.6486725      317346.46      177.41312      34.851491      34.851491     -0.80186387    -0.22738067    -0.0002588814  -0.058047604   -0.092038452   -0.075382698    313306.25      376.4192     
  39956000   39956          1.0028593     -0.27534557     7.7587801      1.5042823      10.409111      9.2630624     -2.6503307      316543.11      177.42495      34.832369      34.832369     -0.79256284     0.042613962   -0.07608784    -0.070795931   -0.060624123   -0.069574319    313336.9       345.05014    
  39960000   39960          1.0001386     -0.26522773     7.7538478      1.5002013      10.405193      9.2540491     -2.6513455      318604.12      177.43679      34.840396      34.840396     -0.7356027     -0.0013016093  -0.058778884   -0.045182032    0.035370464   -0.032704172    313367.53      313.68121    
  39964000   39964          0.9997555     -0.31954425     7.7586253      1.4996266      10.409794      9.258252      -2.6511685      317680.7       177.44863      34.839082      34.839082     -0.862164      -0.024371334   -0.072097414   -0.048147555    0.033661378   -0.0026815484   313398.34      282.31259    
  39968000   39968          0.99971072    -0.21164914     7.7607684      1.4995594      10.409299      9.2603278     -2.6485305      317238.41      177.46046      34.842245      34.842245     -0.65286154    -0.016496231    0.034410361   -0.051165149   -0.0040564528   0.031230484    313428.95      250.94391    
  39972000   39972          1.0003269     -0.25293516     7.7594735      1.5004836      10.407572      9.2599572     -2.6480985      317348.02      177.4723       34.83836       34.83836      -0.79077401     0.025593001    0.0063755178  -0.12018613    -0.031735949    0.0084888355   313459.56      219.5754     
  39976000   39976          1.0036272     -0.20362459     7.7593986      1.5054342      10.409452      9.2648328     -2.6500536      316272.35      177.48414      34.823817      34.823817     -0.73727613     0.14111252    -0.014710168    0.021313575    0.013275974   -0.054851408    313490.17      188.20702    
  39980000   39980          1.0021651     -0.22223216     7.7550676      1.5032409      10.407979      9.2583085     -2.6529119      317771.25      177.49598      34.831062      34.831062     -0.72859943     0.10556912    -0.043666165    0.010147329    0.059408007   -0.031013479    313520.67      156.83876    
  39984000   39984          0.99949499    -0.20849545     7.7585549      1.4992358      10.407441      9.2577908     -2.6488857      317914.97      177.50781      34.830911      34.830911     -0.75153226     0.011714428    0.11433147     0.019134211   -0.065027671   -0.01030739     313551.25      125.47069    
  39988000   39988          1.0024123     -0.202497       7.7606873      1.5036118      10.407654      9.2642992     -2.6469663      316470.36      177.51965      34.840064      34.840064     -0.71827603    -0.035692339    0.14647738    -0.12227501    -0.007792174    0.00065643812  313581.61      94.102713    
  39992000   39992          1.0025671     -0.32310443     7.7615548      1.503844       10.410218      9.2653987     -2.6486635      316246.96      177.53149      34.83848       34.83848      -0.80526018    -0.068284541   -0.095768581   -0.019373343    0.021317702   -0.012654896    313612.53      62.735052    
  39996000   39996          1.0004071     -0.41393487     7.7558468      1.5006041      10.40636       9.2564509     -2.6505134      318293.63      177.54332      34.825018      34.825018     -0.9578822     -0.14337913    -0.14054326    -0.064737328   -0.045579878   -0.2422911      313642.87      31.367424    
  40000000   40000          0.99760664    -0.20704711     7.7612382      1.4964033      10.409017      9.2576416     -2.6477787      318051.72      177.55516      34.826421      34.826421     -0.76356031     0.052189828    0.090229149   -0.036075455    0.052373179   -0.017953469    313673.13      0            
Loop time of 313673 on 16 procs for 40000000 steps with 225980 atoms

Performance: 11017.839 tau/day, 127.521 timesteps/s
95.0% CPU use with 16 MPI tasks x 1 OpenMP threads

MPI task timing breakdown:
Section |  min time  |  avg time  |  max time  |%varavg| %total
---------------------------------------------------------------
Pair    | 25020      | 25983      | 26628      | 262.8 |  8.28
Bond    | 1.138e+05  | 1.221e+05  | 1.2573e+05 | 945.5 | 38.93
Neigh   | 289.42     | 293.11     | 296.03     |   8.8 |  0.09
Comm    | 49092      | 52519      | 62536      |1610.8 | 16.74
Output  | 1686       | 1686.1     | 1686.1     |   0.1 |  0.54
Modify  | 1.0407e+05 | 1.0609e+05 | 1.0689e+05 | 228.5 | 33.82
Other   |            | 5002       |            |       |  1.59

Nlocal:        14123.8 ave       14373 max       13398 min
Histogram: 1 0 1 0 0 2 0 3 4 5
Nghost:        28910.4 ave       29326 max       28467 min
Histogram: 1 1 1 3 2 3 1 1 2 1
Neighs:              0 ave           0 max           0 min
Histogram: 16 0 0 0 0 0 0 0 0 0

Total # of neighbors = 0
Ave neighs/atom = 0
Ave special neighs/atom = 66.124259
Neighbor list builds = 211793
Dangerous builds = 0

# GENERATION RESTART
write_restart ./out.deform.restart
System init for write_restart ...
Generated 0 of 36 mixed pair_coeff terms from geometric mixing rule
write_data    ./out.deform.data pair ij
System init for write_data ...
Generated 0 of 36 mixed pair_coeff terms from geometric mixing rule
Total wall time: 87:07:58
