LAMMPS (15 Sep 2022)
OMP_NUM_THREADS environment is not set. Defaulting to 1 thread. (src/comm.cpp:98)
  using 1 OpenMP thread(s) per MPI task
package gpu 0 binsize 12.0
# LAMMPS Script for deform
# Generated 12/17/2022

# INIT PARAMS & READ CONF
include   "/work_bgfs/h/harshad/simulation_9/quiescent_script/filler_repulsive/system.init"
# UNITS
units		lj
dimension	3
atom_style	bond

# INPUT FILE
pair_style	lj/cut 2.5
bond_style	hybrid harmonic fene
read_data /work_bgfs/h/harshad/simulation_9/np7/5000chain/150phr/9_stretching/filler_repulsive/quiescent/thermal_replicates/2.npt.data
Reading data file ...
  orthogonal box = (0.40585031 0.40585031 0.40585031) to (59.59415 59.59415 59.59415)
  2 by 3 by 3 MPI processor grid
  reading atoms ...
  225980 atoms
  reading velocities ...
  225980 velocities
  scanning bonds ...
  16 = max bonds/atom
  reading bonds ...
  923860 bonds
Finding 1-2 1-3 1-4 neighbors ...
  special bond factors lj:    0        0        0       
  special bond factors coul:  0        0        0       
    19 = max # of 1-2 neighbors
   285 = max # of 1-3 neighbors
  4477 = max # of 1-4 neighbors
   201 = max # of special neighbors
  special bonds CPU = 0.304 seconds
  read_data CPU = 2.821 seconds
include   "/work_bgfs/h/harshad/simulation_9/quiescent_script/filler_repulsive/system.kappa1000.settings"
# ATOM TYPE
mass  1  1.0 #backbone
mass  2  1.0 #endmer
mass  3  1.0 #crosslinker
mass  4  1.0 #outer shell
mass  5  1.0 #inner shell 2
mass  6  1.0 #inner-most shell
mass  7  1.0 #center bead
mass  8  1.0 #endmer post crosslinking
mass  9  1.0 #crosslinker post crosslinking

# BOND
bond_coeff 1 harmonic 1000 0.951057
bond_coeff 2 harmonic 1000 1.000000
bond_coeff 3 harmonic 1000 1.380039
bond_coeff 4 harmonic 1000 1.414214
bond_coeff 5 fene 30.0 1.50 1.0 1.0
special_bonds lj 0.0 1.0 1.0
Finding 1-2 1-3 1-4 neighbors ...
  special bond factors lj:    0        1        1       
  special bond factors coul:  0        0        0       
    19 = max # of 1-2 neighbors
   285 = max # of 1-3 neighbors
  4477 = max # of 1-4 neighbors
   201 = max # of special neighbors
  special bonds CPU = 0.295 seconds

# PAIR
variable rcut equal 2^(1/6)
pair_coeff  1*3 1*9 1 1
pair_coeff  4*7 4*7 1 1 ${rcut}
pair_coeff  4*7 4*7 1 1 1.12246204830937
pair_coeff  4*9 8*9 1 1

pair_modify  shift yes
neigh_modify delay 1 check yes

# MAKE GROUPS
group polymer type 1 2 3 8 9
102500 atoms in group polymer
#group ins     type 1
#group strand  type 1 2 8
#group ends    type 2 8
#group xlinks  type 3 9
group filler  type 4 5 6 7
123480 atoms in group filler

neighbor 1.5 multi
comm_modify     mode multi cutoff/multi 1 1.5 cutoff/multi * 2.8

# INPUTS FROM SBATCH
variable Temp          equal 1.0
variable gamma_total   equal 2.0
variable gamma_rate    equal 0.00005
variable dt            equal 0.001
variable Nfreq         equal 4000
variable Nrepeat_2     equal 100
variable Nevery_1      equal 1
variable Nrepeat_1     equal 1

variable Run           equal ${gamma_total}/${gamma_rate}/${dt}
variable Run           equal 2/${gamma_rate}/${dt}
variable Run           equal 2/5e-05/${dt}
variable Run           equal 2/5e-05/0.001

# RUN OPTIONS
run_style verlet
timestep  ${dt}
timestep  0.001

# RESTART
restart  ${Nfreq} cycle.1.restart cycle.2.restart
restart  4000 cycle.1.restart cycle.2.restart

# SAVE RESTARTS EVERY 10% EXTENSION
variable RestFreq      equal 0.1/${gamma_rate}/${dt}
variable RestFreq      equal 0.1/5e-05/${dt}
variable RestFreq      equal 0.1/5e-05/0.001
restart  ${RestFreq} deform.*.restart
restart  2000000 deform.*.restart

# COMPUTE ke/atom, pe/atom, pxx/atom, position and time-avg
compute     ke_atm          all     ke/atom
compute     p_atm           all     stress/atom NULL
compute     pe_atm          all     pe/atom
compute     ebond_atm       all     pe/atom bond
compute     posit_atm       all     property/atom x y z
fix         avg_ke_atm_1    all     ave/atom ${Nevery_1} ${Nrepeat_1} ${Nfreq} c_ke_atm
fix         avg_ke_atm_1    all     ave/atom 1 ${Nrepeat_1} ${Nfreq} c_ke_atm
fix         avg_ke_atm_1    all     ave/atom 1 1 ${Nfreq} c_ke_atm
fix         avg_ke_atm_1    all     ave/atom 1 1 4000 c_ke_atm
fix         avg_pxx_atm_1   all     ave/atom ${Nevery_1} ${Nrepeat_1} ${Nfreq} c_p_atm[*]
fix         avg_pxx_atm_1   all     ave/atom 1 ${Nrepeat_1} ${Nfreq} c_p_atm[*]
fix         avg_pxx_atm_1   all     ave/atom 1 1 ${Nfreq} c_p_atm[*]
fix         avg_pxx_atm_1   all     ave/atom 1 1 4000 c_p_atm[*]
fix         avg_pe_atm_1    all     ave/atom ${Nevery_1} ${Nrepeat_1} ${Nfreq} c_pe_atm
fix         avg_pe_atm_1    all     ave/atom 1 ${Nrepeat_1} ${Nfreq} c_pe_atm
fix         avg_pe_atm_1    all     ave/atom 1 1 ${Nfreq} c_pe_atm
fix         avg_pe_atm_1    all     ave/atom 1 1 4000 c_pe_atm
#fix         avg_posit_atm_1 all     ave/atom ${Nevery_1} ${Nrepeat_1} ${Nfreq} c_posit_atm[1] c_posit_atm[2] c_posit_atm[3]
dump        dump_1 all custom ${Nfreq} ${out_dir}traj.${Nevery_1}_${Nrepeat_1}_${Nfreq}.xyz mol type x y z f_avg_ke_atm_1 f_avg_pe_atm_1 f_avg_pxx_atm_1[*]
dump        dump_1 all custom 4000 ${out_dir}traj.${Nevery_1}_${Nrepeat_1}_${Nfreq}.xyz mol type x y z f_avg_ke_atm_1 f_avg_pe_atm_1 f_avg_pxx_atm_1[*]
dump        dump_1 all custom 4000 /shares_bgfs/dssimmons_data/harshad/deform/np7/150phr/filler_repulsive/replicate_2/work_bgfs--h--harshad--simulation_9--np7--5000chain--150phr--9_stretching--filler_repulsive--replicate_2--traj.${Nevery_1}_${Nrepeat_1}_${Nfreq}.xyz mol type x y z f_avg_ke_atm_1 f_avg_pe_atm_1 f_avg_pxx_atm_1[*]
dump        dump_1 all custom 4000 /shares_bgfs/dssimmons_data/harshad/deform/np7/150phr/filler_repulsive/replicate_2/work_bgfs--h--harshad--simulation_9--np7--5000chain--150phr--9_stretching--filler_repulsive--replicate_2--traj.1_${Nrepeat_1}_${Nfreq}.xyz mol type x y z f_avg_ke_atm_1 f_avg_pe_atm_1 f_avg_pxx_atm_1[*]
dump        dump_1 all custom 4000 /shares_bgfs/dssimmons_data/harshad/deform/np7/150phr/filler_repulsive/replicate_2/work_bgfs--h--harshad--simulation_9--np7--5000chain--150phr--9_stretching--filler_repulsive--replicate_2--traj.1_1_${Nfreq}.xyz mol type x y z f_avg_ke_atm_1 f_avg_pe_atm_1 f_avg_pxx_atm_1[*]
dump        dump_1 all custom 4000 /shares_bgfs/dssimmons_data/harshad/deform/np7/150phr/filler_repulsive/replicate_2/work_bgfs--h--harshad--simulation_9--np7--5000chain--150phr--9_stretching--filler_repulsive--replicate_2--traj.1_1_4000.xyz mol type x y z f_avg_ke_atm_1 f_avg_pe_atm_1 f_avg_pxx_atm_1[*]
dump_modify dump_1 append yes sort id

# COMPUTE a separate pe and ke for each group, AVG & SAVE
compute   pe_polymer    polymer reduce  sum c_pe_atm
compute   pe_filler     filler  reduce  sum c_pe_atm
compute   ebond_polymer polymer reduce  sum c_ebond_atm
compute   ebond_filler  filler  reduce  sum c_ebond_atm
compute   ke_polymer    polymer reduce  sum c_ke_atm
compute   ke_filler     filler  reduce  sum c_ke_atm
compute   pxx_polymer   polymer reduce  sum c_p_atm[1] c_p_atm[2] c_p_atm[3]
compute   pxx_filler    filler  reduce  sum c_p_atm[1] c_p_atm[2] c_p_atm[3]
compute   pxy_polymer   polymer reduce  sum c_p_atm[4] c_p_atm[5] c_p_atm[6]
compute   pxy_filler    filler  reduce  sum c_p_atm[4] c_p_atm[5] c_p_atm[6]
#compute   pxx_all       all     reduce  sum c_p_atm
fix 		  avgEnergy     all     ave/time ${Nevery_1} ${Nrepeat_2} ${Nfreq} c_pe_polymer c_ke_polymer c_ebond_polymer c_pe_filler c_ke_filler c_ebond_filler c_pxy_polymer[1] c_pxy_polymer[2] c_pxy_polymer[3] c_pxy_filler[1] c_pxy_filler[2] c_pxy_filler[3]   file energy.avg.csv
fix 		  avgEnergy     all     ave/time 1 ${Nrepeat_2} ${Nfreq} c_pe_polymer c_ke_polymer c_ebond_polymer c_pe_filler c_ke_filler c_ebond_filler c_pxy_polymer[1] c_pxy_polymer[2] c_pxy_polymer[3] c_pxy_filler[1] c_pxy_filler[2] c_pxy_filler[3]   file energy.avg.csv
fix 		  avgEnergy     all     ave/time 1 100 ${Nfreq} c_pe_polymer c_ke_polymer c_ebond_polymer c_pe_filler c_ke_filler c_ebond_filler c_pxy_polymer[1] c_pxy_polymer[2] c_pxy_polymer[3] c_pxy_filler[1] c_pxy_filler[2] c_pxy_filler[3]   file energy.avg.csv
fix 		  avgEnergy     all     ave/time 1 100 4000 c_pe_polymer c_ke_polymer c_ebond_polymer c_pe_filler c_ke_filler c_ebond_filler c_pxy_polymer[1] c_pxy_polymer[2] c_pxy_polymer[3] c_pxy_filler[1] c_pxy_filler[2] c_pxy_filler[3]   file energy.avg.csv
fix       avgPxx_all    all     ave/time ${Nevery_1} ${Nfreq} ${Nfreq}     c_pxx_polymer[1] c_pxx_polymer[2] c_pxx_polymer[3] c_pxx_filler[1] c_pxx_filler[2] c_pxx_filler[3]                                                                                    file pxx.all.avg.csv
fix       avgPxx_all    all     ave/time 1 ${Nfreq} ${Nfreq}     c_pxx_polymer[1] c_pxx_polymer[2] c_pxx_polymer[3] c_pxx_filler[1] c_pxx_filler[2] c_pxx_filler[3]                                                                                    file pxx.all.avg.csv
fix       avgPxx_all    all     ave/time 1 4000 ${Nfreq}     c_pxx_polymer[1] c_pxx_polymer[2] c_pxx_polymer[3] c_pxx_filler[1] c_pxx_filler[2] c_pxx_filler[3]                                                                                    file pxx.all.avg.csv
fix       avgPxx_all    all     ave/time 1 4000 4000     c_pxx_polymer[1] c_pxx_polymer[2] c_pxx_polymer[3] c_pxx_filler[1] c_pxx_filler[2] c_pxx_filler[3]                                                                                    file pxx.all.avg.csv

# TIME-AVG Ly
variable Ly equal ly
fix       avgLy         all     ave/time ${Nevery_1} ${Nfreq} ${Nfreq}     v_Ly  file Ly.avg.csv
fix       avgLy         all     ave/time 1 ${Nfreq} ${Nfreq}     v_Ly  file Ly.avg.csv
fix       avgLy         all     ave/time 1 4000 ${Nfreq}     v_Ly  file Ly.avg.csv
fix       avgLy         all     ave/time 1 4000 4000     v_Ly  file Ly.avg.csv

# SIMULATION FIXES
fix  npt        all npt temp ${Temp} ${Temp} 2.0 y 0 0 5 z 0 0 5 couple yz
fix  npt        all npt temp 1 ${Temp} 2.0 y 0 0 5 z 0 0 5 couple yz
fix  npt        all npt temp 1 1 2.0 y 0 0 5 z 0 0 5 couple yz
fix  mom        all momentum 10000 linear 1 1 1
fix  deform     all deform 1 x erate ${gamma_rate} remap x units box
fix  deform     all deform 1 x erate 5e-05 remap x units box

# THERMO
variable  thermo_frq equal ${Nfreq}
variable  thermo_frq equal 4000
thermo    ${thermo_frq}
thermo    4000
thermo_style  custom step time temp press pe ke ebond etotal epair ecouple lx ly lz pxx pyy pzz pxy pxz pyz cpu cpuremain

# deform
run ${Run}
run 40000000

CITE-CITE-CITE-CITE-CITE-CITE-CITE-CITE-CITE-CITE-CITE-CITE-CITE

Your simulation uses code contributions which should be cited:

- GPU package (short-range, long-range and three-body potentials): doi:10.1016/j.cpc.2010.12.021, doi:10.1016/j.cpc.2011.10.012, doi:10.1016/j.cpc.2013.08.002, doi:10.1016/j.commatsci.2014.10.068, doi:10.1016/j.cpc.2016.10.020, doi:10.3233/APC200086

@Article{Brown11,
 author = {W. M. Brown and P. Wang and S. J. Plimpton and A. N. Tharrington},
 title = {Implementing Molecular Dynamics on Hybrid High Performance Computers---Short Range Forces},
 journal = {Comput.\ Phys.\ Commun.},
 year =    2011,
 volume =  182,
 pages =   {898--911},
 doi =     {10.1016/j.cpc.2010.12.021}
}

@Article{Brown12,
 author = {W. M. Brown and A. Kohlmeyer and S. J. Plimpton and A. N. Tharrington},
 title = {Implementing Molecular Dynamics on Hybrid High Performance Computers - Particle-Particle Particle-Mesh},
 journal = {Comput.\ Phys.\ Commun.},
 year =    2012,
 volume =  183,
 doi =     {10.1016/j.cpc.2011.10.012},
 pages =   {449--459}
}

@Article{Brown13,
 author = {W. M. Brown and Y. Masako},
 title = {Implementing Molecular Dynamics on Hybrid High Performance Computers---Three-Body Potentials},
 journal = {Comput.\ Phys.\ Commun.},
 year =    2013,
 volume =  184,
 pages =   {2785--2793},
 doi =     {10.1016/j.cpc.2013.08.002},
}

@Article{Trung15,
 author = {T. D. Nguyen and S. J. Plimpton},
 title = {Accelerating Dissipative Particle Dynamics Simulations for Soft Matter Systems},
 journal = {Comput.\ Mater.\ Sci.},
 year =    2015,
 doi =     {10.1016/j.commatsci.2014.10.068},
 volume =  100,
 pages =   {173--180}
}

@Article{Trung17,
 author = {T. D. Nguyen},
 title = {{GPU}-Accelerated {T}ersoff Potentials for Massively Parallel
    Molecular Dynamics Simulations},
 journal = {Comput.\ Phys.\ Commun.},
 year =    2017,
 doi =     {10.1016/j.cpc.2016.10.020},
 volume =  212,
 pages =   {113--122}
}

@inproceedings{Nikolskiy19,
 author = {V. Nikolskiy and V. Stegailov},
 title = {{GPU} Acceleration of Four-Site Water Models in {LAMMPS}},
 booktitle = {Proceedings of the International Conference on Parallel
    Computing (ParCo 2019), Prague, Czech Republic},
 doi =     {10.3233/APC200086},
 year =    2019
}

- neighbor multi command: doi:10.1016/j.cpc.2008.03.005, doi:10.1007/s40571-020-00361-2

@Article{Intveld08,
 author =  {in 't Veld, P. J. and S. J.~Plimpton and G. S. Grest},
 title =   {Accurate and Efficient Methods for Modeling Colloidal
            Mixtures in an Explicit Solvent using Molecular Dynamics},
 journal = {Comput.\ Phys.\ Commut.},
 year =    2008,
 volume =  179,
 pages =   {320--329}
}

@article{Shire2020,
 author = {Shire, Tom and Hanley, Kevin J. and Stratford, Kevin},
 title = {{DEM} Simulations of Polydisperse Media: Efficient Contact
          Detection Applied to Investigate the Quasi-Static Limit},
 journal = {Computational Particle Mechanics},
 year = {2020}
}

CITE-CITE-CITE-CITE-CITE-CITE-CITE-CITE-CITE-CITE-CITE-CITE-CITE

Generated 0 of 36 mixed pair_coeff terms from geometric mixing rule
WARNING: Communication cutoff adjusted to 4 (src/comm.cpp:732)
WARNING: Inconsistent image flags (src/domain.cpp:819)
Per MPI rank memory allocation (min/avg/max) = 55.67 | 55.74 | 55.91 Mbytes
   Step          Time           Temp          Press          PotEng         KinEng         E_bond         TotEng         E_pair        Ecouple           Lx             Ly             Lz            Pxx            Pyy            Pzz            Pxy            Pxz            Pyz            CPU          CPULeft    
         0   0              1.0004465     -0.01198911     7.5895067      1.5006632      10.39407       9.0901699     -2.8045633      0              59.188299      59.188299      59.188299      0.017700881    0.014018205   -0.067686417   -0.012070056    0.01356225    -0.017854588    0              0            
      4000   4              1.0021689      0.053977469    7.5899572      1.5032467      10.392538      9.0932039     -2.8025811     -640.79728      59.200137      59.184995      59.184995      0.019492925    0.11282689     0.029612591   -0.011111861   -0.021933436    0.07614173     25.970673      259680.77    
      8000   8              0.99893077    -0.075452843    7.5912302      1.4983895      10.396856      9.0896198     -2.8056254      216.78362      59.211975      59.19169       59.19169      -0.1164831     -0.033667335   -0.076208091    0.059345091   -0.06147163     0.016643776    51.814236      259019.37    
     12000   12             0.99813604     0.023812458    7.587515       1.4971974      10.393977      9.0847125     -2.806462       1371.2138      59.223812      59.176116      59.176116     -0.0829804      0.061069043    0.093348733   -0.060885677   -0.037643238    0.073553053    77.560928      258458.87    
     16000   16             1.0017761     -0.00085880855  7.5893332      1.5026574      10.395767      9.0919907     -2.8064338     -226.39566      59.23565       59.155345      59.155345      0.067675719    0.018721013   -0.088973157    0.015944902   -0.046374179   -0.067409341    103.51984      258696.08    
     20000   20             0.99947355     0.060066874    7.5911952      1.4992037      10.396938      9.0903989     -2.8057428      179.71062      59.247488      59.172987      59.172987      0.0048590778   0.086571268    0.088770275   -0.012094493   -0.086425667    0.009704131    129.84868      259567.52    
     24000   24             1.0009192      0.035158172    7.58392        1.5013722      10.390635      9.0852922     -2.8067151      1377.8066      59.259325      59.144211      59.144211     -0.0068166177  -0.055630125    0.16792126     0.075344897    0.072932687    0.045452035    158.03019      263225.62    
     28000   28             0.99846184    -0.040678331    7.5943088      1.4976861      10.39705       9.0919949     -2.8027415     -88.054241      59.271163      59.160378      59.160378     -0.067306569    0.079200311   -0.13392873     0.030984298    0.051454559    0.0041931787   187.06932      267054.81    
     32000   32             1.0011845     -0.040024515    7.5971323      1.5017701      10.397915      9.0989025     -2.8007823     -1602.2701      59.283001      59.164816      59.164816     -0.29723237     0.081781954    0.095376875   -0.016080408    0.010850458   -0.078430103    215.93086      269697.65    
     36000   36             0.99992053    -0.05600158     7.5907146      1.4998742      10.395619      9.0905887     -2.8049049      322.59751      59.294838      59.138256      59.138256     -0.054994134    0.0066935627  -0.11970417    -0.042985657    0.018979438    0.044720704    244.79888      271753.96    
     40000   40             0.99835441    -0.074887253    7.587809       1.497525       10.392228      9.0853339     -2.8044189      1556.1187      59.306676      59.135477      59.135477     -0.10481137    -0.084758737   -0.035091648    0.040350074   -0.038133258    0.038418527    273.54879      273275.24    
     44000   44             1.0011915      0.10432312     7.5923816      1.5017806      10.398136      9.0941623     -2.8057542     -389.51071      59.318514      59.130169      59.130169      0.084631236    0.14265416     0.085683981    0.019831485   -0.020869492   -0.025635896    302.39552      274602.62    
     48000   48             1.0024021      0.022291558    7.5874172      1.5035965      10.393597      9.0910137     -2.8061796      368.47132      59.330351      59.140994      59.140994     -0.018640844    0.11493662    -0.029421105    0.012204747    0.01271534     0.0080531885   331.52563      275939.83    
     52000   52             1.0000315     -0.028918243    7.5892627      1.5000407      10.395529      9.0893034     -2.8062661      803.68914      59.342189      59.11227       59.11227      -0.12899588     0.10215956    -0.059918408    0.069932472    0.066927752   -0.077300595    360.45594      276913.34    
     56000   56             0.99760049     0.033083186    7.5915217      1.4963941      10.395994      9.0879158     -2.8044724      1165.1173      59.354027      59.10809       59.10809       0.054206418    0.038697533    0.0063456078  -0.0023921796  -0.016248909   -0.046264033    389.42214      277769.25    
     60000   60             0.99909167    -0.0046054747   7.5874251      1.4986309      10.395075      9.086056      -2.8076498      1633.3679      59.365864      59.103497      59.103497     -0.027798843    0.08219551    -0.068213092    0.011685859    0.057221858   -0.028028897    418.42806      278533.62    
     64000   64             0.99978787     0.030414192    7.5879992      1.4996752      10.395545      9.0876743     -2.8075461      1314.9307      59.377702      59.100371      59.100371      0.11892725     0.016045604   -0.043730282   -0.023329692    0.054341436    0.084835503    447.52404      279255       
     68000   68             1.0023906     -0.058025203    7.589261       1.5035792      10.39656       9.0928402     -2.8072988      196.99594      59.38954       59.088542      59.088542     -0.11547759     0.059101915   -0.11769994    -0.0243797      0.039687767   -0.041135121    476.59842      279875.42    
     72000   72             0.99932882    -0.03085424     7.5851701      1.4989866      10.39228       9.0841567     -2.8071095      2206.4886      59.401377      59.074314      59.074314      0.057355176   -0.055169214   -0.094748682    0.029008      -0.068730769   -0.015881944    505.81837      280504.39    
     76000   76             1.0024238      0.066838876    7.583275       1.503629       10.393292      9.086904      -2.8100172      1632.1087      59.413215      59.067683      59.067683     -0.068253571    0.11671264     0.15205756     0.061770211   -0.019488971    0.032512867    535.19865      281148.3     
     80000   80             1.000278       0.021316       7.5886454      1.5004104      10.393921      9.0890558     -2.8052751      1194.2537      59.425053      59.067248      59.067248      0.027114517    0.069808346   -0.032974862    0.069616018    0.060533801    0.020286243    564.60669      281738.74    
     84000   84             0.99860218    -0.10043993     7.5901786      1.4978966      10.396755      9.0880752     -2.8065759      1464.4467      59.43689       59.067713      59.067713     -0.14724865    -0.073606309   -0.080464837    0.0018392319   0.044498488   -0.020579334    593.32305      281941.46    
     88000   88             0.99876589    -0.0095778824   7.5868053      1.4981422      10.390387      9.0849475     -2.8035814      2218.8933      59.448728      59.076271      59.076271     -0.0688815      0.060201495   -0.020053642    0.03592017    -0.02163373     0.045068286    622.53518      282348       
     92000   92             1.0004741     -0.1713219      7.5936451      1.5007046      10.39605       9.0943497     -2.8024049      144.56424      59.460566      59.072655      59.072655     -0.32222723    -0.073588651   -0.11814982    -0.037819225    0.066976225    0.096907747    651.17064      282466.5     
     96000   96             0.99938326     0.023064266    7.5918578      1.4990683      10.393725      9.0909261     -2.8018675      965.28292      59.472403      59.063826      59.063826      0.096975557    0.055960017   -0.083742774    0.092694893   -0.13215336     0.050131079    679.8925       282608.65    
    100000   100            0.99922195    -0.065374423    7.5888426      1.4988263      10.391679      9.0876689     -2.8028361      1751.0784      59.484241      59.068425      59.068425     -0.25837798     0.18397449    -0.12171978     0.052976481    0.03132263    -0.035356405    708.45396      282673.13    
    104000   104            0.9993547      0.022742319    7.5932845      1.4990254      10.396775      9.0923099     -2.803491       753.07482      59.496079      59.051932      59.051932     -0.07980385     0.18521308    -0.03718227     0.062079912   -0.010025696    0.023069178    737.66742      282980.57    
    108000   108            1.0005558      0.02367858     7.594916       1.500827       10.394807      9.0957431     -2.7998906      25.341508      59.507916      59.074647      59.074647     -0.02247237     0.043119257    0.050388853   -0.10415066     0.008456609    0.011847387    766.78552      283227.85    
    112000   112            1.0006213     -0.020401875    7.5981872      1.5009254      10.396156      9.0991126     -2.7979692     -686.32425      59.519754      59.06474       59.06474      -0.16280561    -0.065371834    0.16697182    -0.090710973   -0.11173398    -0.17124521     795.87678      283445.83    
    116000   116            0.99847334    -0.065618635    7.5929152      1.4977034      10.39548       9.0906186     -2.8025646      1282.3223      59.531592      59.041635      59.041635     -0.174902      -0.038474063    0.016520154    0.012359605    0.061458998   -0.11292006     824.87318      283614.15    
    120000   120            0.9986439     -0.092435043    7.5953483      1.4979592      10.396619      9.0933075     -2.8012707      725.08177      59.543429      59.037696      59.037696     -0.15469447    -0.046885471   -0.075725191    0.080438989   -0.053347768   -0.026448204    854.14959      283862.38    
    124000   124            1.0008789     -0.093055641    7.6008104      1.5013117      10.397973      9.1021221     -2.7971626     -1218.0936      59.555267      59.048906      59.048906     -0.021661003   -0.05931456    -0.19819136    -0.038590266   -0.05470475     0.051949302    882.70853      283861.98    
    128000   128            1.000339      -0.098745799    7.5932811      1.5005018      10.395357      9.0937829     -2.8020761      712.95042      59.567104      59.026155      59.026155     -0.24276555    -0.098631635    0.045159786   -0.021900904   -0.033550198    0.021792723    911.37762      283894.13    
    132000   132            0.99854123    -0.020919106    7.5943886      1.4978052      10.395096      9.0921938     -2.8007076      1120.441       59.578942      59.037339      59.037339     -0.1187219      0.10794649    -0.051981909   -0.0052943301   0.00013762357  0.018436737    940.06965      283929.52    
    136000   136            1.0011262     -0.18963637     7.5961899      1.5016826      10.396057      9.0978725     -2.7998666     -114.53726      59.59078       59.027159      59.027159     -0.22939222    -0.14466633    -0.19485055     0.0095708176   0.0086502102   0.0010289732   969.3024       284119.64    
    140000   140            1.0010945     -0.010109145    7.5936265      1.5016351      10.392238      9.0952616     -2.7986118      522.833        59.602617      59.020274      59.020274     -0.11747138     0.13449781    -0.047353863   -0.02514726    -0.075105511   -0.023608813    998.24773      284215.39    
    144000   144            1.0008623     -0.13370304     7.5889245      1.5012868      10.390486      9.0902113     -2.8015612      1712.7582      59.614455      59.018147      59.018147     -0.12297912    -0.13936543    -0.13876457    -0.070184443    0.080205246    0.073161833    1027.2004      284306.24    
    148000   148            1.0036246     -0.14020084     7.5905452      1.5054302      10.393574      9.0959754     -2.8030286      460.72334      59.626293      58.984825      58.984825     -0.25785706    -0.025170511   -0.13757496     0.041995841    0.12012672     0.061231696    1055.996       284348.32    
    152000   152            1.0001458     -0.14167006     7.5933244      1.500212       10.395505      9.0935364     -2.8021803      1061.8369      59.63813       58.99115       58.99115      -0.23705654    -0.068064098   -0.11988955     0.089437746   -0.066689406    0.015825947    1084.9995      284441.17    
    156000   156            1.0014109     -0.10005499     7.5855021      1.5021097      10.391101      9.0876118     -2.8055986      2447.7734      59.649968      58.968568      58.968568     -0.12023828    -0.033278528   -0.14664816     0.097736737    0.00074941113 -0.022473949    1114.0522      284540.36    
    160000   160            1.0026784     -0.12059095     7.5925893      1.5040109      10.3963        9.0966002     -2.8037111      469.04687      59.661806      58.99493       58.99493      -0.19596269    -0.057167471   -0.10864269    -0.030005372    0.036002498   -0.032705932    1142.8823      284577.7     
    164000   164            1.0016033      0.04730974     7.5923676      1.5023983      10.395209      9.0947659     -2.8028414      932.60309      59.673643      58.96529       58.96529      -0.01334526     0.06551753     0.08975695     0.00081503609 -0.063297586   -0.049918573    1171.8279      284639.86    
    168000   168            0.99982266    -0.094235898    7.5890092      1.4997274      10.394149      9.0887365     -2.8051399      2345.0794      59.685481      58.975238      58.975238     -0.29559791    -0.028127513    0.041017726    0.037038439    0.0034844153  -0.01186242     1200.5876      284653.59    
    172000   172            0.99962042     0.034215011    7.591484       1.499424       10.393064      9.090908      -2.8015799      1903.9971      59.697319      58.963751      58.963751     -0.10786143     0.095546565    0.1149599      0.028967289   -0.06541294    -0.065272938    1229.7773      284764.94    
    176000   176            1.0010154     -0.072756066    7.5926971      1.5015164      10.394439      9.0942135     -2.8017424      1207.291       59.709156      58.949981      58.949981     -0.092730875   -0.078171285   -0.047366039    0.095825099    0.014584809   -0.032039424    1258.8139      284835.26    
    180000   180            1.0021592     -0.030432776    7.596797       1.5032321      10.397805      9.1000291     -2.8010082     -56.236557      59.720994      58.950217      58.950217     -0.094859857    0.099273009   -0.09571148    -0.057825521   -0.018745671    0.040518656    1287.6574      284858.42    
    184000   184            0.99972234     0.0098903482   7.5915864      1.4995769      10.393076      9.0911633     -2.8014894      1997.4516      59.732832      58.965552      58.965552     -0.017624674   -0.035821635    0.083117353    0.0034238974   0.02101927     0.04665372     1316.346       284845.82    
    188000   188            0.99947783    -0.09466709     7.5937316      1.4992101      10.396338      9.0929417     -2.8026062      1646.3193      59.744669      58.944066      58.944066     -0.21702374    -0.023430455   -0.043547072   -0.018618078   -0.030726516   -0.066532751    1345.6103      284954.46    
    192000   192            1.003912      -0.15513642     7.5951425      1.5058614      10.394127      9.1010038     -2.7989849     -124.86143      59.756507      58.953587      58.953587     -0.30053265     0.0097247187  -0.17460134    -0.10520113    -0.053132087    0.026164       1374.783       285038.34    
    196000   196            1.0005345     -0.040767922    7.5948176      1.5007952      10.394152      9.0956128     -2.7993343      1142.7632      59.768345      58.946043      58.946043     -0.13935382    -0.032142612    0.049192665   -0.053785024   -0.017180535   -0.0052145533   1404.0417      285135.08    
    200000   200            1.000388      -0.067463282    7.5930117      1.5005753      10.393543      9.093587      -2.8005313      1650.3901      59.780182      58.940809      58.940809     -0.091780318   -0.078316517   -0.032293011   -0.038271661   -0.025082106   -0.035296101    1433.3212      285230.93    
    204000   204            0.99924512    -0.11032843     7.5933177      1.498861       10.393345      9.0921787     -2.8000274      2018.6451      59.79202       58.922932      58.922932     -0.30123273     0.0079340894  -0.03768665     0.078057722   -0.11350562    -0.088433246    1462.6704      285335.45    
    208000   208            0.99859804    -0.10526955     7.5877017      1.4978904      10.391104      9.0855921     -2.8034028      3555.851       59.803858      58.888934      58.888934     -0.24675947     0.00082258321 -0.06987178     0.033181449    0.13746005     0.012472301    1492.1553      285460.79    
    212000   212            1.0006936      0.095716439    7.5923343      1.5010337      10.39379       9.093368      -2.801456       1850.0454      59.815695      58.907907      58.907907     -0.067396021    0.23413458     0.12041075    -0.064265429    0.040576846   -0.065464498    1522.2058      285686.45    
    216000   216            0.99892099     0.040677118    7.5962456      1.4983749      10.394646      9.0946204     -2.7984004      1615.8317      59.827533      58.91725       58.91725       0.02791707     0.075586225    0.018528061   -0.034950836    0.038142817    0.04605564     1551.3903      285743.1     
    220000   220            1.0024429      0.054520454    7.5968097      1.5036576      10.396835      9.1004674     -2.8000257      344.35177      59.839371      58.897566      58.897566      0.02373984    -0.00013512305  0.13995664    -0.0082587664  -0.046657337   -0.1188924      1581.1181      285894.9     
    224000   224            0.99976104     0.064918411    7.5933118      1.4996349      10.393702      9.0929467     -2.8003903      2092.1847      59.851208      58.887831      58.887831      0.0069136081   0.1606128      0.027228825   -0.069846314   -0.026843039   -0.015776199    1610.162       285918.77    
    228000   228            1.00059       -0.095443418    7.5903587      1.5008784      10.392175      9.0912371     -2.8018159      2526.798       59.863046      58.892154      58.892154     -0.2353799     -0.028496829   -0.022453526   -0.0036812864   0.0662304     -0.052369328    1640.1093      286098.36    
    232000   232            1.0023394     -0.049018041    7.597832       1.5035024      10.393938      9.1013344     -2.796106       296.63161      59.874884      58.906085      58.906085     -0.046330463   -0.044905355   -0.055818304   -0.052870238   -0.010673026    0.018357994    1669.6358      286198.61    
    236000   236            1.0010678      0.0054884891   7.5966731      1.501595       10.394949      9.0982681     -2.798276       1040.0801      59.886721      58.895824      58.895824     -0.12214007     0.08750656     0.051098976    0.010722417   -0.10875397     0.028580281    1699.1986      286300.56    
    240000   240            0.99960748    -0.17605005     7.5944908      1.4994046      10.39306       9.0938954     -2.7985691      2077.5565      59.898559      58.879555      58.879555     -0.31124576    -0.13322744    -0.083676947   -0.021023749   -0.069969518    0.030239491    1728.0375      286278.21    
    244000   244            0.99908153    -0.081235767    7.593086       1.4986157      10.39341       9.0917017     -2.8003235      2623.5238      59.910397      58.873228      58.873228     -0.10844913    -0.043531458   -0.091726715    0.0069767373  -0.023758391    0.032084403    1756.9679      286270.55    
    248000   248            1.0005054      0.072227912    7.5979383      1.5007514      10.396832      9.0986898     -2.7988933      1095.3699      59.922234      58.854905      58.854905     -0.019176485    0.19272478     0.043135443    0.042973337    0.032539618   -0.0680241      1786.1483      286302.29    
    252000   252            0.99999914    -0.11770685     7.5971774      1.4999921      10.39395       9.0971695     -2.7967725      1488.9133      59.934072      58.868998      58.868998     -0.22447585     0.026544114   -0.15518881    -0.099597314   -0.028638776    0.041913174    1815.1417      286302.59    
    256000   256            0.99806906    -0.031805967    7.5935929      1.497097       10.394039      9.0906899     -2.8004462      3003.3951      59.94591       58.855653      58.855653     -0.17153909     0.042825746    0.033295442    0.035380272   -0.051758119   -0.026149305    1844.4481      286350.57    
    260000   260            1.0013602     -0.0064967468   7.5941542      1.5020336      10.394731      9.0961879     -2.8005767      1810.049       59.957747      58.845288      58.845288     -0.066106499   -0.045025633    0.091641891   -0.020063205   -0.0075775494   0.069725134    1873.5366      286362.86    
    264000   264            1.0022478     -0.068550657    7.5970755      1.503365       10.392406      9.1004405     -2.7953304      900.33737      59.969585      58.858412      58.858412     -0.11986748    -0.040191444   -0.045593047   -0.081405373   -0.074483651   -0.13348567     1902.9323      286420.14    
    268000   268            1.0003593      0.010069625    7.5985832      1.5005323      10.394894      9.0991155     -2.7963109      1251.4962      59.981423      58.842331      58.842331     -0.074771686    0.13341781    -0.028437251    0.014177134   -0.041833046    0.028409439    1932.6879      286528.19    
    272000   272            0.9977757     -0.096317552    7.5969115      1.4966569      10.393711      9.0935685     -2.7967997      2556.0591      59.99326       58.836474      58.836474     -0.22658954    -0.021854499   -0.040508619    0.024144328    0.05948704     0.14783074     1962.7434      286675.99    
    276000   276            1.0014225     -0.096215828    7.5993495      1.5021271      10.393353      9.1014766     -2.7940037      817.3325       60.005098      58.851689      58.851689     -0.16869219    -0.050857231   -0.069098066   -0.053068657   -0.080395097    0.077176414    1992.7148      286806.53    
    280000   280            0.99990763     0.029921162    7.5985836      1.4998548      10.394856      9.0984384     -2.7962728      1555.459       60.016936      58.830181      58.830181      0.02559084     0.024833321    0.039339325    0.0031877764  -0.040149465   -0.092990555    2022.3316      286882.18    
    284000   284            0.9970304     -0.10607329     7.5986973      1.495539       10.394504      9.0942362     -2.7958064      2555.4752      60.028773      58.828261      58.828261     -0.2586984      0.10954492    -0.16906638     0.030389016   -0.069559456   -0.031399297    2051.5968      286905.7     
    288000   288            1.0001945     -0.071863224    7.6002733      1.5002851      10.397233      9.1005584     -2.7969592      1178.0063      60.040611      58.815465      58.815465     -0.26485494     0.030540947    0.018724324    0.0018429424   0.059451662    0.030070264    2081.0005      286946.85    
    292000   292            0.9981714      0.033983702    7.5964125      1.4972505      10.394082      9.093663      -2.7976693      2785.2472      60.052449      58.811139      58.811139     -0.10511991     0.15371597     0.053355042    0.037928905    0.002063767   -0.13030824     2110.4318      286989.81    
    296000   296            0.9988969     -0.038842786    7.5958189      1.4983387      10.392466      9.0941576     -2.7966466      2723.7602      60.064286      58.80203       58.80203      -0.1001504      0.02960985    -0.045987809   -0.12560061     0.0035371865   0.12343761     2140.0706      287058.66    
    300000   300            1.0025654      0.028089456    7.5962227      1.5038414      10.393313      9.1000641     -2.7970904      1439.9697      60.076124      58.792685      58.792685     -0.05639972     0.18727956    -0.046611476    0.0094695315  -0.057984124    0.031227056    2168.7616      286999.46    
    304000   304            1.0006276     -0.063045378    7.5970009      1.5009348      10.393095      9.0979356     -2.7960941      1971.6143      60.087962      58.81148       58.81148      -0.13475508     0.03024246    -0.084623514    0.046880945   -0.0053087346  -0.029562402    2198.3707      287060.93    
    308000   308            0.99625947    -0.024914678    7.598647       1.4943826      10.393096      9.0930296     -2.7944491      3132.0686      60.099799      58.804051      58.804051     -0.12715002     0.014539988    0.037865995   -0.0036826493   0.012222513    0.059346505    2227.6343      287075.52    
    312000   312            1.0029954     -0.0024711098   7.5960834      1.5044865      10.392489      9.1005699     -2.796406       1478.6172      60.111637      58.791194      58.791194     -0.04988259     0.0092714914   0.033197769   -0.03081783     0.088107301    0.075415145    2257.9083      287217.51    
    316000   316            1.0005154      0.00555567     7.5991211      1.5007665      10.393727      9.0998876     -2.794606       1684.5039      60.123475      58.789032      58.789032     -0.076434682    0.12410043    -0.03099874     0.015873401   -0.025624944    0.016374689    2287.1002      287219.26    
    320000   320            0.99841229    -0.068690802    7.5965639      1.4976118      10.392811      9.0941757     -2.7962473      3025.1858      60.135312      58.777089      58.777089     -0.21033716     0.0054894083  -0.0012246564   0.060930102   -0.044789907    0.052466318    2316.4892      287244.66    
    324000   324            1.0006822     -0.11907845     7.5974292      1.5010166      10.393699      9.0984458     -2.7962698      2111.531       60.14715       58.770402      58.770402     -0.1665749     -0.13928809    -0.051372378   -0.11607955    -0.081664644    0.01774493     2345.4414      287215.22    
    328000   328            0.99832718     0.056263256    7.5985054      1.4974841      10.394107      9.0959896     -2.7956016      2717.3773      60.158987      58.756558      58.756558     -0.12763893     0.24224491     0.054183783   -0.012153777   -0.028758302    0.014859718    2375.0334      287263.18    
    332000   332            0.99725879     0.070321775    7.5944257      1.4958816      10.392089      9.0903072     -2.7976638      4051.2501      60.170825      58.763447      58.763447      0.0060994263   0.087952504    0.11691339    -0.014082964   -0.020707825   -0.073844411    2404.1708      287254.96    
    336000   336            0.99988408    -0.10469944     7.5979467      1.4998195      10.395249      9.0977662     -2.7973022      2416.2561      60.182663      58.741063      58.741063     -0.29634366     0.11904126    -0.13679592     0.12396681     0.0099254127   0.0046343844   2433.6764      287289.71    
    340000   340            1.0004165      0.014003401    7.5980589      1.5006182      10.393561      9.098677      -2.7955021      2260.9648      60.1945        58.747853      58.747853     -0.13809811     0.11319123     0.066917079    0.030086116   -0.11226128     0.009968517    2462.7142      287268.37    
    344000   344            1.0007819     -0.078077786    7.6019569      1.5011663      10.394756      9.1031232     -2.7927989      1306.6778      60.206338      58.765503      58.765503     -0.13692765    -0.1603356      0.063029898   -0.1074423     -0.045075037   -0.0096633515   2492.4099      287322.69    
    348000   348            0.99962937    -0.0913901      7.5986988      1.4994374      10.393661      9.0981362     -2.7949619      2484.0696      60.218176      58.752377      58.752377     -0.20181809    -0.037800135   -0.034552077   -0.062702325    0.0075884851  -0.0095645698   2521.2919      287282.37    
    352000   352            0.99974246     0.032940657    7.5970627      1.4996071      10.39172       9.0966698     -2.7946572      2864.1364      60.230013      58.727644      58.727644     -0.067848148    0.078478291    0.088191827   -0.095367499   -0.007937749    0.015329418    2551.0999      287346.62    
    356000   356            1.0025021     -0.05801389     7.604204       1.5037466      10.398724      9.1079506     -2.7945196      368.14943      60.241851      58.741485      58.741485     -0.19443453     0.0041275577   0.016265306    0.073380513   -0.056625877    0.014932944    2580.5309      287366.76    
    360000   360            1.0017847     -0.074862786    7.5992734      1.5026704      10.395248      9.1019438     -2.7959746      1776.5369      60.253689      58.726058      58.726058     -0.12672539    -0.080170298   -0.01769267     0.0099925893   0.09917641    -0.017243671    2610.0541      287395.96    
    364000   364            1.000327       0.035297909    7.5955386      1.5004838      10.393339      9.0960224     -2.7978         3164.787       60.265526      58.71366       58.71366       0.01585162     0.054974881    0.035067226    0.089024406   -0.029031501    0.072730413    2639.0798      287369.69    
    368000   368            1.0005192     -0.077566802    7.5993068      1.5007721      10.394681      9.1000789     -2.7953738      2299.4337      60.277364      58.71023       58.71023      -0.22555805    -0.064514552    0.057372197    0.057689979   -0.028236179   -0.0026009274   2668.4499      287380.46    
    372000   372            1.004087       0.045684861    7.5968961      1.5061238      10.392671      9.1030199     -2.7957744      1686.357       60.289202      58.704         58.704         0.020020762   -0.04123155     0.15826537     0.072469265   -0.0037501885   0.11484686     2697.5726      287363.99    
    376000   376            1.0008662     -0.067614471    7.5944084      1.5012927      10.390783      9.0957011     -2.7963742      3389.1808      60.301039      58.697658      58.697658     -0.040255655   -0.084104708   -0.078483052    0.026891652   -0.049981217   -0.015780345    2726.5824      287335.38    
    380000   380            1.0021819     -0.10231304     7.5972573      1.5032662      10.392293      9.1005236     -2.7950354      2352.2585      60.312877      58.70483       58.70483      -0.24732251    -0.021334176   -0.038282446   -0.0003779595   0.012382518   -0.12125235     2755.7031      287318.31    
    384000   384            1.002732       0.003298806    7.5991394      1.5040914      10.39343       9.1032308     -2.7942902      1792.0509      60.324715      58.693808      58.693808     -0.13629873     0.029222807    0.11697234     0.011948374   -0.033969371    0.11585898     2785.3798      287358.35    
    388000   388            0.99865483     0.043458705    7.5972943      1.4979756      10.393319      9.0952699     -2.7960246      3640.301       60.336552      58.673666      58.673666      0.026010526    0.0067125267   0.097653063   -0.085797849   -0.068055651    0.00022030532  2814.9729      287388.42    
    392000   392            1.0015618     -0.15768521     7.5993496      1.502336       10.395834      9.1016857     -2.7964848      2243.4207      60.34839       58.680397      58.680397     -0.2921489     -0.065287965   -0.11561877     0.031058277    0.052876593   -0.11578518     2844.1904      287379.32    
    396000   396            0.99938247    -0.048855307    7.5996515      1.4990671      10.394074      9.0987186     -2.794422       2964.8251      60.360228      58.68344       58.68344      -0.086697891    0.037655904   -0.097523935    0.00032376254 -0.013894777    0.036753543    2873.5513      287384.15    
    400000   400            1.0000798     -0.011766133    7.5942541      1.5001131      10.393336      9.0943672     -2.7990815      3998.1284      60.372065      58.649709      58.649709     -0.15547087     0.089867791    0.03030468     0.038977188   -0.056391098    0.0096039605   2902.8236      287379.53    
    404000   404            0.99965815    -0.085641341    7.6026088      1.4994806      10.397286      9.1020894     -2.7946777      2305.963       60.383903      58.665376      58.665376     -0.21672314     0.01328654    -0.053487426   -0.042834525    0.0083623098  -0.066723483    2931.9663      287361.72    
    408000   408            0.99778669    -0.21891251     7.5983013      1.4966734      10.395114      9.0949747     -2.7968129      3963.4768      60.395741      58.660725      58.660725     -0.34817575    -0.10303647    -0.2055253      0.055700175   -0.040843949    0.011831719    2961.3477      287366.86    
    412000   412            1.0004554     -0.0084190327   7.5959127      1.5006764      10.392719      9.0965891     -2.7968067      3649.4954      60.407578      58.647429      58.647429     -0.020630698    0.05796355    -0.06258995     0.033458981   -0.027979268    0.0041366886   2990.8081      287378.91    
    416000   416            0.99906904    -0.025460299    7.6044782      1.4985969      10.397375      9.1030751     -2.792897       2238.3299      60.419416      58.654094      58.654094     -0.26441872     0.1645459      0.023491922   -0.09403938     0.079020835   -0.026166237    3019.8374      287349.14    
    420000   420            0.99692959    -0.11306518     7.6020041      1.4953878      10.396555      9.0973918     -2.7945508      3572.5141      60.431254      58.64437       58.64437      -0.39656473     0.077250385   -0.019881197   -0.099705602   -0.066755724    0.057635618    3049.1769      287348.63    
    424000   424            0.99899931    -0.0020291011   7.5981883      1.4984923      10.391246      9.0966806     -2.7930582      3782.6228      60.443091      58.655989      58.655989     -0.19391983     0.10257374     0.085258784   -0.022530624    0.05616129     0.0079996582   3078.8277      287376.61    
    428000   428            1.0032008     -0.21021286     7.5978895      1.5047945      10.393848      9.1026839     -2.795959       2479.8142      60.454929      58.618486      58.618486     -0.33308529    -0.072766811   -0.22478647    -0.067897112   -0.043244165   -0.0042759496   3108.2447      287381.91    
    432000   432            0.99782233    -0.057336336    7.5987346      1.4967269      10.394531      9.0954614     -2.7957963      4163.1691      60.466767      58.632045      58.632045     -0.030374653   -0.095528494   -0.046105861    0.079979311    0.058520648   -0.0057634409   3137.584       287379.45    
    436000   436            0.99616477    -0.083457017    7.5945798      1.4942405      10.391972      9.0888203     -2.7973918      5713.7326      60.478604      58.605491      58.605491     -0.20369459    -0.063104379    0.016427913    0.041970958    0.0042401647   0.069522609    3166.9359      287377.64    
    440000   440            1.0033428     -0.092717381    7.5948929      1.5050075      10.393151      9.0999004     -2.7982582      3259.9696      60.490442      58.601892      58.601892     -0.22436609     0.0083295613  -0.062115619   -0.0052569788   0.036289012   -0.00055908119  3196.208       287368.16    
    444000   444            1.0019404     -0.14530198     7.5984324      1.502904       10.393734      9.1013363     -2.7953021      2988.6496      60.50228       58.615484      58.615484     -0.21346713     0.034017072   -0.25645588    -0.016916798    0.03483503    -0.007595834    3225.7271      287380.32    
    448000   448            0.99750131    -0.063383335    7.5996751      1.4962453      10.393903      9.0959205     -2.794228       4263.3047      60.514117      58.615536      58.615536     -0.097728066   -0.051097001   -0.041324938    0.011402799    0.059405313   -0.031073196    3255.0874      287377.72    
    452000   452            1.0002745     -0.092340271    7.603288       1.5004051      10.394321      9.1036931     -2.7910331      2559.6967      60.525955      58.62849       58.62849      -0.25036595     0.021410925   -0.048065789    0.066336011   -0.010613839   -0.045087197    3284.2983      287361.57    
    456000   456            1.0004715     -0.066147588    7.6021907      1.5007006      10.396627      9.1028913     -2.7944361      2791.6299      60.537793      58.596523      58.596523     -0.16164373    -0.034555356   -0.0022436823   0.046644252    0.0054013322   0.093215357    3313.6907      287360.93    
    460000   460            0.99831565    -0.089483098    7.6018842      1.4974669      10.397097      9.0993511     -2.7952124      3642.9146      60.54963       58.5889        58.5889       -0.29801869     0.031398532   -0.001829132    0.027134103    0.060381793    0.084185998    3343.1081      287361.94    
    464000   464            1.0025366      0.035345415    7.6011131      1.5037983      10.396352      9.1049114     -2.7952392      2439.4082      60.561468      58.57583       58.57583      -0.15822133     0.19065019     0.073607387   -0.08817835     0.01428836     0.019687953    3372.0807      287324.53    
    468000   468            1.0030161      0.048700641    7.6033228      1.5045176      10.39675       9.1078404     -2.7934277      1828.5731      60.573306      58.572373      58.572373     -0.067511957    0.21194511     0.0016687651  -0.013509056   -0.081047056    0.0047563082   3401.3038      287308.43    
    472000   472            0.99897505    -0.063209911    7.6020917      1.4984559      10.393089      9.1005477     -2.7909976      3526.5266      60.585143      58.591692      58.591692     -0.044373404   -0.035687706   -0.10956862    -1.837684e-05   0.0023420823   0.081695108    3431.0756      287338.04    
    476000   476            0.99835408    -0.04455752     7.6002421      1.4975245      10.393749      9.0977666     -2.7935066      4206.2494      60.596981      58.553898      58.553898     -0.032412414   -0.14814692     0.046886773    0.016616931   -0.025950377    0.064879921    3460.547       287341.72    
    480000   480            1.0001953     -0.020321483    7.5993076      1.5002864      10.393895      9.099594      -2.794587       3843.4496      60.608819      58.552782      58.552782     -0.2200261      0.055558326    0.10350332    -0.06352828    -0.11027029     0.033575278    3489.3937      287293.41    
    484000   484            1.0021795     -0.025971029    7.6019482      1.5032626      10.395313      9.1052108     -2.7933651      2627.8651      60.620656      58.544695      58.544695     -0.24792302     0.15160467     0.018405262    0.0020539857  -0.015417697   -0.011293838    3518.5814      287273.27    
    488000   488            0.99927161    -0.090921701    7.5976004      1.4989008      10.393709      9.0965012     -2.796109       4644.6266      60.632494      58.553245      58.553245     -0.17279759    -0.047966974   -0.052000536    0.058025777   -0.01866798    -0.047028097    3547.8024      287255.67    
    492000   492            1.001433      -0.1002109      7.5986586      1.5021428      10.392388      9.1008015     -2.7937294      3723.0924      60.644332      58.564175      58.564175     -0.12601636     0.0084008132  -0.18301716    -0.045320679    0.040908975   -0.011656239    3577.5854      287283.01    
    496000   496            0.99998193    -0.025593708    7.6013278      1.4999663      10.395542      9.1012941     -2.7942143      3664.1228      60.656169      58.538588      58.538588     -0.18958304     0.098121899    0.014680014   -0.047938821   -0.05332645     0.015788329    3606.9463      287275.82    
    500000   500            0.99765636    -0.082687609    7.5990225      1.4964779      10.396062      9.0955004     -2.797039       5023.731       60.668007      58.518528      58.518528     -0.16842147    -0.0074766589  -0.072164703    0.031912633   -0.027009043   -0.11367638     3636.9126      287316.1     
    504000   504            1.0005866     -0.035794148    7.6027824      1.5008733      10.396739      9.1036558     -2.7939565      3233.3582      60.679845      58.543279      58.543279     -0.18645025     0.080558879   -0.0014910722  -0.085002159    0.004270998    0.067139444    3666.2063      287302.55    
    508000   508            0.99821512    -0.11254122     7.6019868      1.4973161      10.396271      9.0993028     -2.7942845      4268.6833      60.691682      58.529016      58.529016     -0.21083184    -0.10008753    -0.026704309    0.011318394   -0.10736528     0.0090294386   3695.9927      287327.05    
    512000   512            1.000486       0.0045992702   7.5963653      1.5007223      10.391175      9.0970877     -2.7948095      4819.3352      60.70352       58.50802       58.50802      -0.094431894    0.091141632    0.017088072   -0.089322982   -0.048717787   -0.016935385    3725.4224      287323.2     
    516000   516            1.0018564     -0.030608982    7.601069       1.5027779      10.393916      9.1038469     -2.792847       3347.1514      60.715357      58.525748      58.525748     -0.12924038     0.041811739   -0.0043983049   0.078297474   -0.059368771   -0.076043353    3755.4117      287361.77    
    520000   520            0.99914783    -0.022327496    7.5985757      1.4987151      10.391905      9.0972909     -2.7933291      4878.4824      60.727195      58.507768      58.507768     -0.16728547     0.15370084    -0.053397857    0.017375081    0.066398571   -0.071933557    3784.6382      287341.38    
    524000   524            0.99894103    -0.017610513    7.6003478      1.4984049      10.392719      9.0987527     -2.7923715      4599.9283      60.739033      58.502809      58.502809     -0.14005579     0.12810827    -0.040884022    0.037624739   -0.021975284   -0.028662729    3814.3933      287360.67    
    528000   528            1.0010208      0.25251719     7.6021845      1.5015246      10.394933      9.1037091     -2.7927482      3533.1423      60.75087       58.489894      58.489894      0.067992408    0.41655674     0.27300242     0.070100699    0.072276059   -0.052099623    3843.355       287319.9     
    532000   532            0.99797278    -0.16460258     7.6000644      1.4969526      10.391342      9.0970169     -2.7912777      5095.1337      60.762708      58.501719      58.501719     -0.34042752    -0.017980182   -0.13540004    -0.0069989139   0.071019508   -0.10163595     3872.659       287304.71    
    536000   536            1.0009539     -0.14325332     7.597577       1.5014242      10.392616      9.0990013     -2.7950391      4698.0999      60.774546      58.481344      58.481344     -0.24286993    -0.021518427   -0.1653716     -0.032882155    0.0092542868   0.031214694    3901.7275      287271.97    
    540000   540            1.0022338     -0.032159098    7.6017008      1.503344       10.39641       9.1050448     -2.7947089      3385.0242      60.786383      58.474247      58.474247     -0.16143213    -0.0085689228   0.073523763    0.013941958   -0.065351216   -0.044541734    3931.3979      287283.26    
    544000   544            0.99825923     0.031142659    7.5997893      1.4973822      10.394392      9.0971715     -2.7946026      5213.8583      60.798221      58.486218      58.486218     -0.18641836     0.15645487     0.12339147     0.058905344    0.08352768     0.0012997008   3960.5968      287259.76    
    548000   548            0.99965476    -0.11707403     7.6015239      1.4994755      10.393851      9.1009994     -2.7923269      4401.6622      60.810059      58.478747      58.478747     -0.21511125     0.0018230483  -0.13793388     0.054735167   -0.020426467   -0.10819043     3990.187       287264.34    
    552000   552            1.0006015      0.035008449    7.6012867      1.5008956      10.394398      9.1021823     -2.7931109      4187.1482      60.821896      58.470945      58.470945     -0.12363761     0.099406559    0.1292564     -0.093283778   -0.093128068    0.081477824    4019.6058      287256.17    
    556000   556            0.99867554     0.11403719     7.6011669      1.4980067      10.393606      9.0991736     -2.7924388      4918.9938      60.833734      58.460013      58.460013     -0.0073779028   0.10811681     0.24137267     0.068849695   -0.023149185   -0.042198832    4049.0954      287252.73    
    560000   560            0.99646931    -0.11667868     7.6024134      1.4946974      10.394823      9.0971108     -2.7924093      5436.731       60.845572      58.458858      58.458858     -0.28925378    -0.008669906   -0.052112357    0.010103167   -0.013562634    0.06610152     4078.595       287249.62    
    564000   564            0.99843641    -0.11821799     7.6072061      1.497648       10.400802      9.1048541     -2.7935959      3741.7437      60.857409      58.441273      58.441273     -0.27430978    -0.11044589     0.030101693   -0.028282412   -0.038713142   -0.01369174     4108.2902      287259.81    
    568000   568            1.0003284      0.011548823    7.6036277      1.500486       10.395346      9.1041136     -2.7917181      3958.1253      60.869247      58.446936      58.446936     -0.17531471     0.110731       0.099230184   -0.069328111    0.007153414   -0.01221349     4137.8819      287262.25    
    572000   572            0.99706508     0.0058511387   7.6018866      1.495591       10.396298      9.0974776     -2.794411       5510.0472      60.881085      58.439017      58.439017     -0.20805938     0.032347324    0.19326548    -0.010785201   -0.050226818   -0.017284917    4167.2837      287251.16    
    576000   576            1.0007915     -0.04136684     7.6023378      1.5011806      10.392951      9.1035184     -2.7906136      4196.2615      60.892922      58.445112      58.445112     -0.18528792    -0.044899619    0.10608702    -0.069996476   -0.13252506     0.076952814    4196.4892      287226.37    
    580000   580            1.0018974     -0.14194731     7.6012537      1.5028394      10.392423      9.1040931     -2.7911688      4117.9609      60.90476       58.449741      58.449741     -0.30844007    -0.023487372   -0.093914503   -0.028399909   -0.017792495   -0.041755533    4225.0291      287156.29    
    584000   584            0.99922486    -0.09957921     7.5995312      1.4988307      10.391766      9.0983618     -2.7922353      5466.5916      60.916598      58.426649      58.426649     -0.19880435    -0.099632673   -0.00030060908 -0.0069986824  -0.10197928     0.10150986     4254.14        287125.31    
    588000   588            1.0007424     -0.18733247     7.6028624      1.501107       10.396997      9.1039694     -2.7941347      4253.4662      60.928435      58.415726      58.415726     -0.32351589    -0.16572572    -0.072755789   -0.046371195    0.10345091     0.024265844    4283.3464      287100.76    
    592000   592            1.0028447     -0.11950203     7.5993001      1.5042604      10.392178      9.1035605     -2.792878       4396.8538      60.940273      58.413988      58.413988     -0.41396404     0.080831354   -0.025373401    0.024006853    0.074468186    0.012269254    4312.9299      287101.25    
    596000   596            0.99966359    -0.058255716    7.6000073      1.4994888      10.393717      9.0994961     -2.7937101      5366.0263      60.952111      58.413544      58.413544     -0.2014987     -0.045689529    0.072421086   -0.068758573    0.047333349   -0.016011523    4341.8328      287056.34    
    600000   600            0.99984307     0.028278527    7.6042905      1.499758       10.396087      9.1040485     -2.7917962      4390.8095      60.963948      58.411914      58.411914     -0.15204574     0.11020891     0.12667242    -0.099096729   -0.040181933    0.12367935     4371.2082      287042.67    
    604000   604            0.99943716    -0.081662648    7.6054335      1.4991491      10.397357      9.1045826     -2.7919235      4323.6967      60.975786      58.391018      58.391018     -0.24024499     0.037707813   -0.042450764    0.055775282   -0.062219479   -0.0088569041   4400.7237      287037.93    
    608000   608            0.99933883     0.0012546856   7.5992091      1.4990016      10.391398      9.0982107     -2.7921891      5812.9046      60.987624      58.3938        58.3938       -0.22355059     0.17871925     0.048595401   -0.079315328    0.078004256    0.090128679    4429.9022      287011.03    
    612000   612            1.0020033     -0.030824534    7.6045811      1.5029983      10.394311      9.1075794     -2.7897294      3749.2284      60.999461      58.406372      58.406372     -0.0075640624  -0.037410523   -0.047499015   -0.0035637508   0.046286492    0.048347426    4458.7438      286962.42    
    616000   616            0.99974171    -0.073069783    7.6028561      1.4996059      10.392747      9.102462      -2.7898913      4957.8325      61.011299      58.390275      58.390275     -0.28176778     0.0037772165   0.058781214   -0.0026414718  -0.070416394    0.045087048    4488.0639      286944.66    
    620000   620            0.99701153    -0.047776954    7.6038015      1.4955107      10.395013      9.0993122     -2.7912111      5723.2294      61.023137      58.383877      58.383877     -0.13740058     0.13180944    -0.13773972     0.024728236   -0.0009812168   0.079283475    4517.3021      286921.54    
    624000   624            1.0026881     -0.065896162    7.6042253      1.5040255      10.394824      9.1082508     -2.7905991      3756.1823      61.034974      58.366318      58.366318     -0.19618134     0.042704578   -0.044211724   -0.026930238    0.041822506   -0.04830645     4546.8067      286915.16    
    628000   628            1.0005356     -0.047496313    7.6019048      1.5007967      10.39548       9.1027015     -2.7935749      5061.5816      61.046812      58.364523      58.364523     -0.23926533     0.046975473    0.049800914    0.034391809   -0.011821262    0.0099794358   4576.4818      286919.17    
    632000   632            0.99859466    -0.11780017     7.6043474      1.4978854      10.392467      9.1022328     -2.7881197      5219.1599      61.05865       58.383549      58.383549     -0.22331045    -0.13116969     0.0010796322  -0.070903832   -0.052170071   -0.0037498127   4606.4344      286940.05    
    636000   636            0.99897933    -0.037430194    7.6079012      1.4984624      10.396275      9.1063636     -2.7883735      4340.2965      61.070487      58.374861      58.374861     -0.2872681     -0.0017907091   0.17676823     0.052197631    0.001704684    0.043300885    4635.3282      286894.75    
    640000   640            0.99949666    -0.13143606     7.6067913      1.4992384      10.392235      9.1060297     -2.7854442      4467.3903      61.082325      58.384947      58.384947     -0.25496979    -0.0022779133  -0.13706047    -0.037903238    0.019384501   -0.020755693    4664.2803      286853.24    
    644000   644            0.99741569     0.0051407718   7.6038148      1.4961169      10.39078       9.0999317     -2.7869648      5898.1411      61.094163      58.35935       58.35935      -0.073264933    0.072008417    0.016678831    0.063493365   -0.045003801    0.012301555    4693.2384      286812.25    
    648000   648            1.0024104     -0.10016695     7.6046569      1.503609       10.392292      9.1082659     -2.7876348      4068.4673      61.106         58.363505      58.363505     -0.19914334    -0.022633759   -0.078723747    0.035460687   -0.050402345    0.036076501    4722.4156      286784.72    
    652000   652            1.000537      -0.11398206     7.6060723      1.5007988      10.393549      9.1068711     -2.7874764      4435.3773      61.117838      58.348805      58.348805     -0.32564781     0.0099868809  -0.026285256   -0.070238548    0.0074785987   0.01316207     4751.778       286768.35    
    656000   656            0.99808825    -0.07209119     7.6082753      1.4971258      10.391428      9.1054011     -2.7831523      4818.4531      61.129676      58.370891      58.370891     -0.22495007    -0.0232142      0.031890703   -0.06298447     0.052453711   -0.03249459     4781.6315      286781.26    
    660000   660            1.0016198     -0.16667882     7.605801       1.5024231      10.394354      9.1082242     -2.7885526      4233.7317      61.141513      58.34053       58.34053      -0.36466895     0.082474759   -0.21784227     0.025472754    0.011619121   -0.046757049    4810.8264      286754.41    
    664000   664            0.99552289    -0.19621093     7.605963       1.4932777      10.393494      9.0992407     -2.787531       6316.3884      61.153351      58.332688      58.332688     -0.36710223    -0.060538591   -0.16099195    -0.099314953   -0.040402437    0.022529678    4841.1779      286796.05    
    668000   668            0.99776622    -0.1295102      7.6096803      1.4966427      10.39428       9.106323      -2.7845994      4767.6324      61.165189      58.353411      58.353411     -0.26411528     0.010745055   -0.13516039     0.06542438    -0.061611555    0.079261695    4870.3445      286767.05    
    672000   672            1.0010377     -0.1500124      7.6079413      1.5015499      10.393723      9.1094912     -2.7857819      4104.9371      61.177026      58.332063      58.332063     -0.34760272    -0.025614054   -0.07682043    -0.0050454823  -0.073287104    0.086082694    4900.309       286784.75    
    676000   676            1.0017069     -0.097310306    7.6011051      1.5025537      10.389424      9.1036588     -2.788319       5473.1848      61.188864      58.325072      58.325072     -0.2077763     -0.10002628     0.015871663   -0.047472014    0.034153499    0.058564916    4929.7222      286769.82    
    680000   680            0.99897712    -0.14430133     7.6053837      1.4984591      10.391477      9.1038428     -2.7860931      5484.1642      61.200702      58.321622      58.321622     -0.32840731    -0.030739742   -0.07375694    -0.03965446    -0.043530956    0.017101295    4959.4937      286775.43    
    684000   684            0.99879219    -0.011841592    7.6103092      1.4981817      10.394931      9.1084908     -2.784622       4487.8572      61.212539      58.32431       58.32431      -0.12346532     0.14269467    -0.054754124    0.063624323    0.0088833699  -0.0019208193   4988.4558      286734.1     
    688000   688            1.0004864     -0.13631617     7.6066108      1.500723       10.392813      9.1073337     -2.786202       4801.1872      61.224377      58.315702      58.315702     -0.35934719     0.015015042   -0.064616353    0.0095820461   0.051481971   -0.053576193    5017.9929      286725.78    
    692000   692            0.99747048    -0.2082593      7.60416        1.4961991      10.392961      9.1003591     -2.7888012      6430.0656      61.236215      58.299563      58.299563     -0.3552955     -0.085995977   -0.18348642     0.057940167    0.016675397   -0.092211036    5046.7178      286671.08    
    696000   696            1.0002683     -0.095425232    7.6077126      1.5003958      10.395407      9.1081085     -2.7876947      4731.4822      61.248052      58.305915      58.305915     -0.33740435     0.092486133   -0.041357481   -0.079210348   -0.027895045    0.087031857    5076.2488      286662.19    
    700000   700            0.9992326     -0.11268537     7.6088101      1.4988423      10.392754      9.1076524     -2.7839441      4886.7666      61.25989       58.296873      58.296873     -0.26465914    -0.067456348   -0.0059406134   0.048602133    0.040370814    0.037137601    5105.2808      286625.05    
    704000   704            0.99618076    -0.092086325    7.6063844      1.4942645      10.392482      9.1006489     -2.786098       6520.1958      61.271728      58.27713       58.27713      -0.30167348     0.015726657    0.0096878444  -0.0064105357  -0.011348397   -0.028754813    5134.6738      286608.16    
    708000   708            0.99986697    -0.14117505     7.6081331      1.4997938      10.393661      9.1079269     -2.7855279      4929.2469      61.283565      58.305355      58.305355     -0.35164967    -0.092769666    0.020894189   -0.00088327991 -0.0071559027  -0.019947724    5164.0001      286587.42    
    712000   712            1.0023208     -0.011676065    7.608107       1.5034746      10.394015      9.1115816     -2.7859077      4154.5842      61.295403      58.271315      58.271315     -0.18347772     0.11509592     0.033353605    0.03477997     0.078124747    0.019373525    5193.699       286587.15    
    716000   716            0.99503119    -0.21095639     7.6103633      1.4925402      10.395506      9.1029035     -2.7851423      6168.622       61.30724       58.288985      58.288985     -0.24756735    -0.14758417    -0.23771764    -0.029001019   -0.018693873   -0.033678988    5223.0027      286564.86    
    720000   720            1.0006179     -0.11191938     7.6074048      1.5009203      10.396183      9.1083251     -2.7887782      4996.4875      61.319078      58.2626        58.2626       -0.26758026    -0.049531977   -0.0186459     -0.040431355   -0.012299696    0.065844899    5252.5563      286556.13    
    724000   724            1.0051631     -0.098487475    7.6110315      1.507738       10.397055      9.1187695     -2.7860233      2691.1196      61.330916      58.260308      58.260308     -0.16989538     0.046861219   -0.17242826     0.034751337   -0.054668727    0.04424096     5281.9492      286538.45    
    728000   728            0.99785867    -0.06042162     7.6131791      1.4967814      10.396557      9.1099605     -2.7833778      4733.3741      61.342753      58.261643      58.261643     -0.23222435     0.053949238   -0.0029897466  -0.085957887   -0.03334721    -0.038529271    5311.3089      286518.85    
    732000   732            1.0015846      0.108483       7.6023307      1.5023702      10.390545      9.1047009     -2.7882146      5971.6637      61.354591      58.243312      58.243312     -0.03632632     0.17734647     0.18442884    -0.040173617   -0.036741571    0.042975013    5340.9308      286513.21    
    736000   736            1.002316       0.0082370472   7.6041238      1.5034673      10.39261       9.1075911     -2.7884858      5371.7874      61.366429      58.240879      58.240879     -0.19055164     0.20217601     0.01308678     0.046452179    0.099285598   -0.023228153    5371.0362      286533.1     
    740000   740            1.0021444     -0.23978133     7.6095363      1.50321        10.396079      9.1127463     -2.7865422      4262.0543      61.378266      58.247406      58.247406     -0.4765189     -0.042194144   -0.20063094    -0.016524004   -0.017822883    0.099504518    5400.4346      286514.95    
    744000   744            1.0020747     -0.15181624     7.6050889      1.5031054      10.394411      9.1081944     -2.7893217      5343.3123      61.390104      58.223437      58.223437     -0.33524822    -0.079385908   -0.040814583   -0.054493123    0.015442524    0.057276602    5429.6956      286489.42    
    748000   748            1.0003625     -0.095678275    7.6059879      1.5005371      10.394181      9.106525      -2.7881929      5773.4298      61.401942      58.217372      58.217372     -0.29429804     0.050459721   -0.043196511    0.07804758     0.048410993    0.0039264759   5459.1307      286472.99    
    752000   752            0.99678138    -0.044146831    7.6047668      1.4951655      10.392274      9.0999323     -2.7875071      7314.6203      61.413779      58.224472      58.224472     -0.12133445     0.13649301    -0.14759905     0.013922115   -0.084413151    0.00057298843  5488.6229      286459.4     
    756000   756            1.0018763     -0.014413457    7.6048995      1.5028079      10.390842      9.1077074     -2.7859423      5609.8917      61.425617      58.213551      58.213551     -0.14875984     0.13042192    -0.024902457   -0.020987356    0.095697955    0.06513493     5517.9445      286436.79    
    760000   760            0.99817937    -0.043190488    7.6104063      1.4972624      10.398699      9.1076687     -2.7882926      5675.6238      61.437455      58.209105      58.209105     -0.21220651     0.2029145     -0.12027945    -0.0028848815  -0.1215315     -0.12880259     5547.6381      286433.32    
    764000   764            0.99722912    -0.31808332     7.6039677      1.4958371      10.393062      9.0998047     -2.7890948      7503.9409      61.449292      58.201674      58.201674     -0.39205505    -0.27328663    -0.28890828    -0.040840333   -0.051297431   -0.012584298    5577.0541      286415.31    
    768000   768            1.0001926     -0.19845741     7.6047924      1.5002822      10.393811      9.1050746     -2.7890185      6365.7513      61.46113       58.188659      58.188659     -0.39586744    -0.088389443   -0.11111534    -0.036589052    0.020073059   -0.024688074    5606.332       286390.13    
    772000   772            0.99995352    -0.15724618     7.6076956      1.4999236      10.397249      9.1076192     -2.7895533      5845.148       61.472968      58.181252      58.181252     -0.28919437    -0.027453642   -0.15509053    -0.10141706     0.0011828255  -0.038778642    5636.1989      286394.83    
    776000   776            0.99676189    -0.056646974    7.6060995      1.4951362      10.394171      9.1012357     -2.7880712      7339.7784      61.484805      58.179131      58.179131     -0.12700613    -0.090435778    0.047500985    0.049682254    0.057105462    0.10559567     5665.6343      286377.37    
    780000   780            0.99881514    -0.093903375    7.6123734      1.4982161      10.396771      9.1105894     -2.7843972      5279.4986      61.496643      58.194936      58.194936     -0.27182066     0.067883664   -0.077773128   -0.0010535931   0.036811492    0.039879592    5695.417       286377.25    
    784000   784            0.9997631      0.016558532    7.6098335      1.499638       10.397587      9.1094715     -2.7877539      5583.7389      61.508481      58.167643      58.167643     -0.074174675    0.048748269    0.075102002   -0.054132892   -0.062417697    0.04713899     5724.6432      286348.99    
    788000   788            0.99954562     0.053540663    7.6055935      1.4993118      10.394053      9.1049053     -2.7884593      6667.5979      61.520318      58.160041      58.160041     -0.12226655     0.11497899     0.16790956     0.01269691    -0.045810899   -0.00052846042  5754.4013      286347.19    
    792000   792            1.0011651     -0.061898278    7.613672       1.501741       10.398202      9.115413      -2.7845303      4347.4839      61.532156      58.167795      58.167795     -0.2393195     -0.010587981    0.064212647   -0.011769799   -0.009701254    0.0047457148   5783.4191      286308.45    
    796000   796            1.0003241     -0.090594417    7.607863       1.5004795      10.396075      9.1083425     -2.7882122      5998.4081      61.543994      58.160983      58.160983     -0.20130452    -0.03101356    -0.039465175    0.024907404   -0.075853309    0.017347351    5813.3199      286313.31    
    800000   800            0.99968135    -0.15454055     7.6075186      1.4995154      10.393592      9.107034      -2.7860731      6347.5685      61.555831      58.146957      58.146957     -0.37669271     0.040215345   -0.12714427    -0.018457176   -0.033510296   -0.0091208103   5842.6799      286291.31    
    804000   804            0.99972822    -0.051006925    7.6163017      1.4995857      10.399048      9.1158874     -2.7827465      4401.6772      61.567669      58.176472      58.176472     -0.16759808     0.11083038    -0.096253076    0.043859268   -0.0077076176  -0.0052846651   5872.8045      286306.52    
    808000   808            0.99964997     0.082181446    7.6090846      1.4994683      10.395393      9.1085529     -2.786308       6110.2744      61.579507      58.139214      58.139214     -0.076594434    0.1058337      0.21730507    -0.14534257    -0.025965287    0.071979989    5902.1068      286281.4     
    812000   812            0.99869005    -0.019822754    7.6102838      1.4980284      10.39556       9.1083122     -2.7852758      6219.1257      61.591344      58.128343      58.128343     -0.19885763     0.075520192    0.063869172    0.07578613    -0.02088487     0.1237637      5931.5251      286261.83    
    816000   816            0.99961326    -0.083149654    7.6109738      1.4994133      10.394052      9.110387      -2.7830781      5803.0241      61.603182      58.157154      58.157154     -0.20383957     0.0063598271  -0.051969219   -0.045837896   -0.04271944     0.081455047    5961.0416      286246.88    
    820000   820            0.99779534     0.16744536     7.6134738      1.4966864      10.394304      9.1101602     -2.7808306      5907.6599      61.61502       58.143367      58.143367     -0.061093317    0.30967405     0.25375536    -0.0028014531  -0.06981212     0.061394807    5990.7016      286238.65    
    824000   824            0.99815052    -0.045385221    7.6092342      1.4972192      10.393359      9.1064534     -2.7841243      6797.1102      61.626857      58.130934      58.130934     -0.23088292     0.050864798    0.043862454    0.044096244   -0.045524676   -0.041897727    6020.2533      286225.05    
    828000   828            1.000429      -0.085961042    7.6103149      1.5006369      10.394176      9.1109517     -2.7838616      5834.6851      61.638695      58.123665      58.123665     -0.28732892     0.056351477   -0.026905686    0.054591177    0.016695161   -0.073774277    6050.106       286225.55    
    832000   832            0.99898089    -0.067103229    7.6147776      1.4984647      10.399519      9.1132423     -2.7847416      5372.1482      61.650533      58.124292      58.124292     -0.20710099     0.084632006   -0.078840697    0.081544988   -0.049182383   -0.052058848    6079.394       286199.16    
    836000   836            0.99852152    -0.0048937387   7.6116631      1.4977756      10.397857      9.1094387     -2.7861937      6283.5694      61.66237       58.098305      58.098305     -0.12299615     0.083832796    0.024482143   -0.038156898    0.012546506    0.040578975    6108.9432      286184.99    
    840000   840            1.0007993     -0.02405629     7.6096564      1.5011923      10.395293      9.1108487     -2.7856365      6017.8688      61.674208      58.091231      58.091231     -0.089013894    0.040094046   -0.023249022    0.032143007    0.035379286    0.052120738    6138.501       286171.07    
[...]
  39768000   39768          1.0009182     -0.30040841     7.7434734      1.5013706      10.411264      9.244844      -2.6677909      316963.81      176.87831      34.736858      34.736858     -0.76062905    -0.14196564     0.0013694664   0.052691188   -0.091471518    0.086235816    315889.19      1842.8458    
  39772000   39772          0.99781247    -0.23324276     7.7471006      1.4967121      10.412869      9.2438127     -2.6657684      317222.89      176.89015      34.732397      34.732397     -0.64192543    -0.069404364    0.011601509   -0.014978189    0.055884353   -0.024107005    315921.94      1811.0782    
  39776000   39776          0.99912966    -0.1790688      7.7399849      1.4986879      10.407101      9.2386728     -2.667116       318408.8       176.90199      34.736389      34.736389     -0.6225606      0.14309432    -0.05774013     0.097215403    0.11028489    -0.048205184    315954.67      1779.3103    
  39780000   39780          0.999382      -0.14082443     7.7428669      1.4990664      10.407373      9.2419332     -2.6645063      317696.73      176.91383      34.733287      34.733287     -0.70351661     0.18755322     0.093490116    0.070719855    0.04403485    -0.043857749    315987.66      1747.5436    
  39784000   39784          1.0006882     -0.24734889     7.7428619      1.5010257      10.408006      9.2438876     -2.6651442      317280.29      176.92566      34.732599      34.732599     -0.6244242      0.022119448   -0.13974193    -0.014627051   -0.011476424   -0.055224733    316021.26      1715.78      
  39788000   39788          1.0010702     -0.35841281     7.7399879      1.5015986      10.406784      9.2415865     -2.6667963      317824.27      176.9375       34.734606      34.734606     -0.81347843    -0.12557771    -0.13618229     0.025480612   -0.027644225   -0.046412863    316055.41      1684.019     
  39792000   39792          0.99582764    -0.34742509     7.7420892      1.4937348      10.408223      9.235824      -2.6661341      319153.2       176.94934      34.732375      34.732375     -0.81092097    -0.10838018    -0.12297412     0.18899323    -0.033951647    0.036303689    316088.1       1652.2498    
  39796000   39796          0.9979117     -0.21526574     7.7467869      1.4968609      10.409517      9.2436478     -2.6627301      317412.16      176.96118      34.74256       34.74256      -0.71952488     0.091117083   -0.017389426    0.045061324    0.016123958    0.033585423    316121.21      1620.4826    
  39800000   39800          0.99952383    -0.1185603      7.7459647      1.4992791      10.408116      9.2452438     -2.6621517      317075.48      176.97302      34.73011       34.73011      -0.6164243      0.18454777     0.076195613    0.029051351    0.012253252   -0.058254517    316155.52      1588.7212    
  39804000   39804          0.99835398    -0.1811916      7.7407388      1.4975243      10.406132      9.2382631     -2.6653928      318677.57      176.98485      34.732817      34.732817     -0.66044883    -0.021768334    0.13864237    -0.015844384   -0.050165766    0.054933538    316189.87      1556.9595    
  39808000   39808          1.0033394     -0.30080223     7.7427539      1.5050025      10.408647      9.2477564     -2.665893       316558.41      176.99669      34.732009      34.732009     -0.72638552    -0.079509313   -0.09651185     0.086266209   -0.028252043    0.025021465    316223.09      1525.1918    
  39812000   39812          1.0000987     -0.36879836     7.7454737      1.5001414      10.409214      9.2456151     -2.6637404      317066.99      177.00853      34.730836      34.730836     -0.87049335    -0.10079157    -0.13511017     0.035413931    0.0046656313  -0.14154332     316256.26      1493.4235    
  39816000   39816          0.99947481    -0.19150066     7.7388898      1.4992056      10.407926      9.2380954     -2.6690361      318791.74      177.02037      34.724636      34.724636     -0.82708918     0.10016194     0.15242527     0.13996767    -0.068042602    0.032475047    316289.08      1461.6534    
  39820000   39820          0.99981653    -0.24056211     7.7434551      1.4997182      10.410413      9.2431733     -2.6669583      317670.43      177.0322       34.718943      34.718943     -0.75567129    -0.1198974      0.15388237     0.029017822    0.036359205   -0.10977457     316321.87      1429.8829    
  39824000   39824          0.99923412    -0.14418728     7.7451997      1.4988445      10.412889      9.2440442     -2.6676896      317500.41      177.04404      34.721252      34.721252     -0.59515946     0.12207491     0.040522715    0.070536245   -0.051606245    0.051685805    316354.66      1398.1122    
  39828000   39828          0.99783451    -0.13485105     7.742167       1.4967451      10.409951      9.2389121     -2.6677845      318684.43      177.05588      34.723631      34.723631     -0.61743385     0.014481652    0.19839906     0.11386806    -0.0076172614   0.032885274    316388.05      1366.3439    
  39832000   39832          1.0005755     -0.25865863     7.7446289      1.5008567      10.411149      9.2454856     -2.6665202      317225.49      177.06772      34.725774      34.725774     -0.76097065    -0.055416174    0.040410923    0.060549797    0.052240753   -0.065324276    316421.1       1334.5739    
  39836000   39836          1.0042494     -0.27104394     7.7486922      1.5063674      10.412865      9.2550597     -2.6641728      315087.19      177.07955      34.727054      34.727054     -0.65703008    -0.029499315   -0.12660244    -0.087753906    0.077734678   -0.055851148    316454.25      1302.8039    
  39840000   39840          1.003163      -0.27404975     7.7390021      1.5047379      10.404866      9.2437399     -2.6658643      317667.72      177.09139      34.722083      34.722083     -0.79189676     0.069578065   -0.099830561    0.10382553     0.082267909   -0.043822158    316487.78      1271.0353    
  39844000   39844          0.99887866    -0.20566403     7.7391543      1.4983114      10.406351      9.2374656     -2.6671966      319111.69      177.10323      34.705154      34.705154     -0.70576809     0.016873207    0.07190279     0.099395004   -0.028866386    0.014591908    316520.73      1239.264     
  39848000   39848          0.99700002    -0.1977896      7.7493676      1.4954934      10.410273      9.244861      -2.6609058      317467.48      177.11507      34.729915      34.729915     -0.68759136     0.031677138    0.062545429    0.09950993    -0.014946924   -0.063149574    316553.79      1207.4929    
  39852000   39852          1.0015615     -0.18012134     7.7443235      1.5023355      10.41073       9.2466591     -2.6664061      317086.99      177.1269       34.716633      34.716633     -0.51806        0.036431523   -0.058735554    0.10331367     0.038145641   -0.020942366    316586.98      1175.722     
  39856000   39856          1.0018117     -0.21088609     7.7357966      1.5027109      10.405195      9.2385075     -2.6693982      318952.27      177.13874      34.698886      34.698886     -0.69179671     0.1123833     -0.053244852   -0.01671141     0.044763015    0.046565421    316619.63      1143.9489    
  39860000   39860          1.0006624     -0.28580477     7.7381537      1.5009869      10.407365      9.2391407     -2.6692116      318833.94      177.15058      34.702285      34.702285     -0.7560384     -0.033992999   -0.067382908    0.062800197   -0.15725839     0.009519707    316652.86      1112.1776    
  39864000   39864          1.0015579     -0.24004597     7.7398074      1.5023303      10.407103      9.2421376     -2.6672957      318183.04      177.16242      34.70641       34.70641      -0.6321567     -0.084472283   -0.0035089227  -0.0068105394  -0.027070243    0.11387218     316686.28      1080.4067    
  39868000   39868          1.0025675     -0.26270231     7.746532       1.5038445      10.411571      9.2503766     -2.6650386      316348.27      177.17426      34.7152        34.7152       -0.77623187     0.048098485   -0.059973544    0.10667585     0.081810067    0.0077908948   316719.65      1048.6353    
  39872000   39872          0.99983248    -0.21886787     7.7431039      1.4997421      10.410136      9.242846      -2.6670325      318074.31      177.18609      34.702224      34.702224     -0.70473012     0.17157823    -0.12345173     0.044502874   -0.0074861626   0.077819647    316753.64      1016.8656    
  39876000   39876          0.99947072    -0.26929455     7.742766       1.4991994      10.409974      9.2419654     -2.667208       318299.17      177.19793      34.708528      34.708528     -0.76020849     0.071074702   -0.11874985     0.080293456   -0.0015455931   0.057125602    316786.85      985.09303    
  39880000   39880          1.0012882     -0.10317814     7.7454963      1.5019257      10.411847      9.247422      -2.6663506      317092.32      177.20977      34.705233      34.705233     -0.56325204     0.23825912     0.015458505   -0.037468763   -0.053413842    0.0046807961   316820.16      953.32044    
  39884000   39884          0.99997595    -0.37144602     7.7424617      1.4999573      10.407819      9.242419      -2.6653571      318246.28      177.22161      34.699065      34.699065     -0.94383153    -0.074666979   -0.095839557   -0.011194557   -0.051044114   -0.05181426     316853.14      921.5466     
  39888000   39888          0.9981188     -0.20342259     7.7429308      1.4971716      10.409858      9.2401024     -2.6669276      318794.96      177.23344      34.711108      34.711108     -0.71750093    -0.052457864    0.15969102     0.055943794    0.058115707   -0.011146587    316886.63      889.77394    
  39892000   39892          1.0000052     -0.16608058     7.7448074      1.5000011      10.412212      9.2448085     -2.6674047      317756.54      177.24528      34.698804      34.698804     -0.6342626      0.0086644645   0.12735638     0.026705252   -0.0052344447  -0.017651198    316919.58      857.99946    
  39896000   39896          0.99768075    -0.27405917     7.7394366      1.4965145      10.406484      9.2359511     -2.6670475      319782.8       177.25712      34.699012      34.699012     -0.76302892     0.028823644   -0.087972253    0.065601962   -0.033200824   -0.068971893    316952.51      826.22471    
  39900000   39900          1.0008636     -0.28929578     7.742211       1.5012887      10.40941       9.2434998     -2.6671991      318102.46      177.26896      34.700605      34.700605     -0.7571751      0.0099924429  -0.12070469    -0.052372263   -0.0050084849   0.031670814    316985.74      794.45049    
  39904000   39904          0.99926121    -0.22232007     7.7423206      1.4988852      10.411203      9.2412058     -2.668882       318647.19      177.28079      34.682357      34.682357     -0.65476037     0.024636801   -0.036836632    0.052806178    0.04015848     0.071542871    317018.53      762.6749     
  39908000   39908          1.0010784     -0.27753752     7.7373129      1.501611       10.404147      9.2389239     -2.6668337      319185.37      177.29263      34.696523      34.696523     -0.77076248     0.02972589    -0.091575974    0.076834003    0.046403904    0.0044862204   317051.79      730.9002     
  39912000   39912          1.0010427     -0.090150332    7.7414733      1.5015575      10.406446      9.2430307     -2.6649723      318284.67      177.30447      34.702752      34.702752     -0.53563341     0.054071629    0.21111078     0.023476327   -0.038474233   -0.017759262    317084.76      699.12455    
  39916000   39916          0.99994765    -0.18690246     7.7469531      1.4999148      10.411957      9.246868      -2.665004       317443.79      177.31631      34.700581      34.700581     -0.7112218      0.11164113     0.038873274    0.090249892   -0.10219923    -0.053360801    317118.1       667.34944    
  39920000   39920          0.99908441    -0.31539887     7.7395297      1.49862        10.408566      9.2381497     -2.669036       319438.26      177.32814      34.684378      34.684378     -0.76905518    -0.062337839   -0.11480358     0.0089481314  -0.01262732     0.11941494     317151.31      635.57376    
  39924000   39924          0.9999401     -0.27691354     7.7413548      1.4999035      10.409677      9.2412583     -2.6683226      318760.72      177.33998      34.693798      34.693798     -0.73144493     0.054380037   -0.15367575     0.023220566   -0.015002005    0.063842158    317184.84      603.79841    
  39928000   39928          1.0024552     -0.11952883     7.7424403      1.5036761      10.407146      9.2461164     -2.6647054      317688.14      177.35182      34.697953      34.697953     -0.61327239     0.11610602     0.13857987    -0.0160099      0.012543484    0.024333052    317217.67      572.02144    
  39932000   39932          0.99968892    -0.25024487     7.7409653      1.4995267      10.407401      9.2404921     -2.6664357      318984.26      177.36366      34.694811      34.694811     -0.73225693     0.072892399   -0.091370074    0.042159433    0.040711442   -0.056097379    317250.71      540.24462    
  39936000   39936          0.99967096    -0.2289008      7.7420608      1.4994998      10.406511      9.2415606     -2.6644504      318766.93      177.3755       34.695942      34.695942     -0.68988867    -0.0093969108   0.012583175    0.039678673   -0.014773299    0.018599368    317284.27      508.46837    
  39940000   39940          1.000707      -0.32397856     7.7415066      1.5010538      10.407752      9.2425604     -2.6662457      318567.99      177.38733      34.691414      34.691414     -0.74921056    -0.040409434   -0.18231567    -0.016469446   -0.027927472   -0.061300561    317317.9       476.69189    
  39944000   39944          0.99769275    -0.23585026     7.7364357      1.4965325      10.40522       9.2329683     -2.6687844      320758.89      177.39917      34.686046      34.686046     -0.76972914     0.023191296    0.03898708     0.095606822   -0.065840352   -0.094440761    317352.02      444.91571    
  39948000   39948          1.0009635     -0.17213723     7.7403258      1.5014386      10.407667      9.2417643     -2.6673415      318798.15      177.41101      34.680776      34.680776     -0.56028664     0.086273573   -0.042398614   -0.074213545    0.018297521    0.010165286    317387.64      413.14102    
  39952000   39952          1.000767      -0.10654885     7.7432215      1.5011439      10.408416      9.2443654     -2.6651949      318236.56      177.42285      34.686243      34.686243     -0.66322306     0.17561033     0.16796618     0.064074634    0.050222833   -0.015928061    317422.72      381.3649     
  39956000   39956          0.99821843    -0.084701859    7.7386621      1.497321       10.409059      9.2359831     -2.6703967      320155.39      177.43468      34.67633       34.67633      -0.5554197      0.16338345     0.13793068     0.012081736   -0.063070896    0.057708223    317456.91      349.58715    
  39960000   39960          1.000251      -0.21432687     7.7415407      1.5003699      10.407962      9.2419105     -2.6664213      318841.11      177.44652      34.688036      34.688036     -0.67423927     0.044676007   -0.013417346    0.057441244   -0.0028860054  -0.07373833     317490.28      317.80809    
  39964000   39964          1.0003566     -0.14146734     7.7417203      1.5005283      10.407176      9.2422486     -2.6654559      318790.63      177.45836      34.683762      34.683762     -0.58286443     0.26857132    -0.11010893     0.12207919    -0.148822      -0.0634274      317523.56      286.02863    
  39968000   39968          1.0001154     -0.17671031     7.7436637      1.5001664      10.409392      9.2438301     -2.6657287      318458.44      177.4702       34.68878       34.68878      -0.71898253    -0.012708665    0.20156026    -0.090559313   -0.038027481   -0.0053518392   317556.62      254.24869    
  39972000   39972          1.002002      -0.28621036     7.7443503      1.5029964      10.408945      9.2473467     -2.6645952      317690.58      177.48203      34.685649      34.685649     -0.73484416    -0.088292054   -0.035494872    0.05978967     0.0045179903  -0.0913701      317589.84      222.46861    
  39976000   39976          0.99886883    -0.41474158     7.7405116      1.4982966      10.408107      9.2388082     -2.6675951      319644.64      177.49387      34.684623      34.684623     -0.83973704    -0.14568849    -0.25879922     0.070273206    0.060503988    0.073346947    317623.07      190.68825    
  39980000   39980          0.99979427    -0.40443605     7.7427322      1.4996848      10.409995      9.242417      -2.6672631      318854.55      177.50571      34.680581      34.680581     -0.879696      -0.18282863    -0.15078353     0.058012846   -0.0018599747   0.022561578    317656.06      158.90748    
  39984000   39984          0.99692349    -0.22343804     7.7455753      1.4953786      10.407733      9.240954      -2.6621579      319211         177.51755      34.690349      34.690349     -0.75971057    -0.030655642    0.12005208     0.061022674    0.017474565   -0.13612988     317689.24      127.12655    
  39988000   39988          0.99691879    -0.22982234     7.7394778      1.4953716      10.405741      9.2348494     -2.6662635      320613.92      177.52939      34.680374      34.680374     -0.7289131     -0.048701811    0.088147896    0.0010873578   0.018540939    0.078002924    317722.36      95.345312    
  39992000   39992          0.99972027    -0.19156576     7.7435498      1.4995738      10.40899       9.2431235     -2.6654407      318770.98      177.54122      34.669351      34.669351     -0.63930598     0.01176391     0.052844796    0.066143474    0.02291674    -0.012916754    317755.56      63.563824    
  39996000   39996          1.0008155     -0.36536006     7.7390153      1.5012166      10.407729      9.2402319     -2.6687138      319449.25      177.55306      34.674854      34.674854     -0.7165823     -0.22521736    -0.15428052    -0.030498286   -0.097193627   -0.057733788    317788.31      31.782009    
  40000000   40000          0.99830237    -0.27944198     7.7340571      1.4974469      10.40407       9.231504      -2.6700127      321444.91      177.5649       34.662172      34.662172     -0.6287742     -0.033264861   -0.17628688    -0.081505549    0.02463993     0.021347835    317821.35      0            
Loop time of 317821 on 18 procs for 40000000 steps with 225980 atoms

Performance: 10874.033 tau/day, 125.857 timesteps/s
95.0% CPU use with 18 MPI tasks x 1 OpenMP threads

MPI task timing breakdown:
Section |  min time  |  avg time  |  max time  |%varavg| %total
---------------------------------------------------------------
Pair    | 24249      | 26286      | 27218      | 363.8 |  8.27
Bond    | 1.1561e+05 | 1.2622e+05 | 1.3001e+05 | 850.9 | 39.72
Neigh   | 268.74     | 273.17     | 279.54     |  20.0 |  0.09
Comm    | 47431      | 51110      | 62825      |1453.1 | 16.08
Output  | 1734.6     | 1734.6     | 1734.7     |   0.1 |  0.55
Modify  | 1.0585e+05 | 1.0672e+05 | 1.076e+05  | 184.5 | 33.58
Other   |            | 5468       |            |       |  1.72

Nlocal:        12554.4 ave       12752 max       11917 min
Histogram: 1 0 0 0 0 2 1 4 6 4
Nghost:        26641.6 ave       26914 max       26310 min
Histogram: 1 1 1 3 3 1 2 1 2 3
Neighs:              0 ave           0 max           0 min
Histogram: 18 0 0 0 0 0 0 0 0 0

Total # of neighbors = 0
Ave neighs/atom = 0
Ave special neighs/atom = 66.124259
Neighbor list builds = 211625
Dangerous builds = 0

# GENERATION RESTART
write_restart ./out.deform.restart
System init for write_restart ...
Generated 0 of 36 mixed pair_coeff terms from geometric mixing rule
write_data    ./out.deform.data pair ij
System init for write_data ...
Generated 0 of 36 mixed pair_coeff terms from geometric mixing rule
Total wall time: 88:17:06
