LAMMPS (15 Sep 2022)
OMP_NUM_THREADS environment is not set. Defaulting to 1 thread. (src/comm.cpp:98)
  using 1 OpenMP thread(s) per MPI task
package gpu 0 binsize 12.0
# LAMMPS Script for deform
# Generated 12/17/2022

# INIT PARAMS & READ CONF
include   "/work_bgfs/h/harshad/simulation_9/quiescent_script/filler_repulsive/system.init"
# UNITS
units		lj
dimension	3
atom_style	bond

# INPUT FILE
pair_style	lj/cut 2.5
bond_style	hybrid harmonic fene
read_data /work_bgfs/h/harshad/simulation_9/np7/5000chain/150phr/9_stretching/filler_repulsive/quiescent/thermal_replicates/1.npt.data
Reading data file ...
  orthogonal box = (0.41321634 0.41321634 0.41321634) to (59.586784 59.586784 59.586784)
  2 by 3 by 3 MPI processor grid
  reading atoms ...
  225980 atoms
  reading velocities ...
  225980 velocities
  scanning bonds ...
  16 = max bonds/atom
  reading bonds ...
  923860 bonds
Finding 1-2 1-3 1-4 neighbors ...
  special bond factors lj:    0        0        0       
  special bond factors coul:  0        0        0       
    19 = max # of 1-2 neighbors
   285 = max # of 1-3 neighbors
  4477 = max # of 1-4 neighbors
   201 = max # of special neighbors
  special bonds CPU = 0.300 seconds
  read_data CPU = 3.300 seconds
include   "/work_bgfs/h/harshad/simulation_9/quiescent_script/filler_repulsive/system.kappa1000.settings"
# ATOM TYPE
mass  1  1.0 #backbone
mass  2  1.0 #endmer
mass  3  1.0 #crosslinker
mass  4  1.0 #outer shell
mass  5  1.0 #inner shell 2
mass  6  1.0 #inner-most shell
mass  7  1.0 #center bead
mass  8  1.0 #endmer post crosslinking
mass  9  1.0 #crosslinker post crosslinking

# BOND
bond_coeff 1 harmonic 1000 0.951057
bond_coeff 2 harmonic 1000 1.000000
bond_coeff 3 harmonic 1000 1.380039
bond_coeff 4 harmonic 1000 1.414214
bond_coeff 5 fene 30.0 1.50 1.0 1.0
special_bonds lj 0.0 1.0 1.0
Finding 1-2 1-3 1-4 neighbors ...
  special bond factors lj:    0        1        1       
  special bond factors coul:  0        0        0       
    19 = max # of 1-2 neighbors
   285 = max # of 1-3 neighbors
  4477 = max # of 1-4 neighbors
   201 = max # of special neighbors
  special bonds CPU = 0.291 seconds

# PAIR
variable rcut equal 2^(1/6)
pair_coeff  1*3 1*9 1 1
pair_coeff  4*7 4*7 1 1 ${rcut}
pair_coeff  4*7 4*7 1 1 1.12246204830937
pair_coeff  4*9 8*9 1 1

pair_modify  shift yes
neigh_modify delay 1 check yes

# MAKE GROUPS
group polymer type 1 2 3 8 9
102500 atoms in group polymer
#group ins     type 1
#group strand  type 1 2 8
#group ends    type 2 8
#group xlinks  type 3 9
group filler  type 4 5 6 7
123480 atoms in group filler

neighbor 1.5 multi
comm_modify     mode multi cutoff/multi 1 1.5 cutoff/multi * 2.8

# INPUTS FROM SBATCH
variable Temp          equal 1.0
variable gamma_total   equal 2.0
variable gamma_rate    equal 0.00005
variable dt            equal 0.001
variable Nfreq         equal 4000
variable Nrepeat_2     equal 100
variable Nevery_1      equal 1
variable Nrepeat_1     equal 1

variable Run           equal ${gamma_total}/${gamma_rate}/${dt}
variable Run           equal 2/${gamma_rate}/${dt}
variable Run           equal 2/5e-05/${dt}
variable Run           equal 2/5e-05/0.001

# RUN OPTIONS
run_style verlet
timestep  ${dt}
timestep  0.001

# RESTART
restart  ${Nfreq} cycle.1.restart cycle.2.restart
restart  4000 cycle.1.restart cycle.2.restart

# SAVE RESTARTS EVERY 10% EXTENSION
variable RestFreq      equal 0.1/${gamma_rate}/${dt}
variable RestFreq      equal 0.1/5e-05/${dt}
variable RestFreq      equal 0.1/5e-05/0.001
restart  ${RestFreq} deform.*.restart
restart  2000000 deform.*.restart

# COMPUTE ke/atom, pe/atom, pxx/atom, position and time-avg
compute     ke_atm          all     ke/atom
compute     p_atm           all     stress/atom NULL
compute     pe_atm          all     pe/atom
compute     ebond_atm       all     pe/atom bond
compute     posit_atm       all     property/atom x y z
fix         avg_ke_atm_1    all     ave/atom ${Nevery_1} ${Nrepeat_1} ${Nfreq} c_ke_atm
fix         avg_ke_atm_1    all     ave/atom 1 ${Nrepeat_1} ${Nfreq} c_ke_atm
fix         avg_ke_atm_1    all     ave/atom 1 1 ${Nfreq} c_ke_atm
fix         avg_ke_atm_1    all     ave/atom 1 1 4000 c_ke_atm
fix         avg_pxx_atm_1   all     ave/atom ${Nevery_1} ${Nrepeat_1} ${Nfreq} c_p_atm[*]
fix         avg_pxx_atm_1   all     ave/atom 1 ${Nrepeat_1} ${Nfreq} c_p_atm[*]
fix         avg_pxx_atm_1   all     ave/atom 1 1 ${Nfreq} c_p_atm[*]
fix         avg_pxx_atm_1   all     ave/atom 1 1 4000 c_p_atm[*]
fix         avg_pe_atm_1    all     ave/atom ${Nevery_1} ${Nrepeat_1} ${Nfreq} c_pe_atm
fix         avg_pe_atm_1    all     ave/atom 1 ${Nrepeat_1} ${Nfreq} c_pe_atm
fix         avg_pe_atm_1    all     ave/atom 1 1 ${Nfreq} c_pe_atm
fix         avg_pe_atm_1    all     ave/atom 1 1 4000 c_pe_atm
#fix         avg_posit_atm_1 all     ave/atom ${Nevery_1} ${Nrepeat_1} ${Nfreq} c_posit_atm[1] c_posit_atm[2] c_posit_atm[3]
dump        dump_1 all custom ${Nfreq} ${out_dir}traj.${Nevery_1}_${Nrepeat_1}_${Nfreq}.xyz mol type x y z f_avg_ke_atm_1 f_avg_pe_atm_1 f_avg_pxx_atm_1[*]
dump        dump_1 all custom 4000 ${out_dir}traj.${Nevery_1}_${Nrepeat_1}_${Nfreq}.xyz mol type x y z f_avg_ke_atm_1 f_avg_pe_atm_1 f_avg_pxx_atm_1[*]
dump        dump_1 all custom 4000 /shares_bgfs/dssimmons_data/harshad/deform/np7/150phr/filler_repulsive/replicate_1/work_bgfs--h--harshad--simulation_9--np7--5000chain--150phr--9_stretching--filler_repulsive--replicate_1--traj.${Nevery_1}_${Nrepeat_1}_${Nfreq}.xyz mol type x y z f_avg_ke_atm_1 f_avg_pe_atm_1 f_avg_pxx_atm_1[*]
dump        dump_1 all custom 4000 /shares_bgfs/dssimmons_data/harshad/deform/np7/150phr/filler_repulsive/replicate_1/work_bgfs--h--harshad--simulation_9--np7--5000chain--150phr--9_stretching--filler_repulsive--replicate_1--traj.1_${Nrepeat_1}_${Nfreq}.xyz mol type x y z f_avg_ke_atm_1 f_avg_pe_atm_1 f_avg_pxx_atm_1[*]
dump        dump_1 all custom 4000 /shares_bgfs/dssimmons_data/harshad/deform/np7/150phr/filler_repulsive/replicate_1/work_bgfs--h--harshad--simulation_9--np7--5000chain--150phr--9_stretching--filler_repulsive--replicate_1--traj.1_1_${Nfreq}.xyz mol type x y z f_avg_ke_atm_1 f_avg_pe_atm_1 f_avg_pxx_atm_1[*]
dump        dump_1 all custom 4000 /shares_bgfs/dssimmons_data/harshad/deform/np7/150phr/filler_repulsive/replicate_1/work_bgfs--h--harshad--simulation_9--np7--5000chain--150phr--9_stretching--filler_repulsive--replicate_1--traj.1_1_4000.xyz mol type x y z f_avg_ke_atm_1 f_avg_pe_atm_1 f_avg_pxx_atm_1[*]
dump_modify dump_1 append yes sort id

# COMPUTE a separate pe and ke for each group, AVG & SAVE
compute   pe_polymer    polymer reduce  sum c_pe_atm
compute   pe_filler     filler  reduce  sum c_pe_atm
compute   ebond_polymer polymer reduce  sum c_ebond_atm
compute   ebond_filler  filler  reduce  sum c_ebond_atm
compute   ke_polymer    polymer reduce  sum c_ke_atm
compute   ke_filler     filler  reduce  sum c_ke_atm
compute   pxx_polymer   polymer reduce  sum c_p_atm[1] c_p_atm[2] c_p_atm[3]
compute   pxx_filler    filler  reduce  sum c_p_atm[1] c_p_atm[2] c_p_atm[3]
compute   pxy_polymer   polymer reduce  sum c_p_atm[4] c_p_atm[5] c_p_atm[6]
compute   pxy_filler    filler  reduce  sum c_p_atm[4] c_p_atm[5] c_p_atm[6]
#compute   pxx_all       all     reduce  sum c_p_atm
fix 		  avgEnergy     all     ave/time ${Nevery_1} ${Nrepeat_2} ${Nfreq} c_pe_polymer c_ke_polymer c_ebond_polymer c_pe_filler c_ke_filler c_ebond_filler c_pxy_polymer[1] c_pxy_polymer[2] c_pxy_polymer[3] c_pxy_filler[1] c_pxy_filler[2] c_pxy_filler[3]   file energy.avg.csv
fix 		  avgEnergy     all     ave/time 1 ${Nrepeat_2} ${Nfreq} c_pe_polymer c_ke_polymer c_ebond_polymer c_pe_filler c_ke_filler c_ebond_filler c_pxy_polymer[1] c_pxy_polymer[2] c_pxy_polymer[3] c_pxy_filler[1] c_pxy_filler[2] c_pxy_filler[3]   file energy.avg.csv
fix 		  avgEnergy     all     ave/time 1 100 ${Nfreq} c_pe_polymer c_ke_polymer c_ebond_polymer c_pe_filler c_ke_filler c_ebond_filler c_pxy_polymer[1] c_pxy_polymer[2] c_pxy_polymer[3] c_pxy_filler[1] c_pxy_filler[2] c_pxy_filler[3]   file energy.avg.csv
fix 		  avgEnergy     all     ave/time 1 100 4000 c_pe_polymer c_ke_polymer c_ebond_polymer c_pe_filler c_ke_filler c_ebond_filler c_pxy_polymer[1] c_pxy_polymer[2] c_pxy_polymer[3] c_pxy_filler[1] c_pxy_filler[2] c_pxy_filler[3]   file energy.avg.csv
fix       avgPxx_all    all     ave/time ${Nevery_1} ${Nfreq} ${Nfreq}     c_pxx_polymer[1] c_pxx_polymer[2] c_pxx_polymer[3] c_pxx_filler[1] c_pxx_filler[2] c_pxx_filler[3]                                                                                    file pxx.all.avg.csv
fix       avgPxx_all    all     ave/time 1 ${Nfreq} ${Nfreq}     c_pxx_polymer[1] c_pxx_polymer[2] c_pxx_polymer[3] c_pxx_filler[1] c_pxx_filler[2] c_pxx_filler[3]                                                                                    file pxx.all.avg.csv
fix       avgPxx_all    all     ave/time 1 4000 ${Nfreq}     c_pxx_polymer[1] c_pxx_polymer[2] c_pxx_polymer[3] c_pxx_filler[1] c_pxx_filler[2] c_pxx_filler[3]                                                                                    file pxx.all.avg.csv
fix       avgPxx_all    all     ave/time 1 4000 4000     c_pxx_polymer[1] c_pxx_polymer[2] c_pxx_polymer[3] c_pxx_filler[1] c_pxx_filler[2] c_pxx_filler[3]                                                                                    file pxx.all.avg.csv

# TIME-AVG Ly
variable Ly equal ly
fix       avgLy         all     ave/time ${Nevery_1} ${Nfreq} ${Nfreq}     v_Ly  file Ly.avg.csv
fix       avgLy         all     ave/time 1 ${Nfreq} ${Nfreq}     v_Ly  file Ly.avg.csv
fix       avgLy         all     ave/time 1 4000 ${Nfreq}     v_Ly  file Ly.avg.csv
fix       avgLy         all     ave/time 1 4000 4000     v_Ly  file Ly.avg.csv

# SIMULATION FIXES
fix  npt        all npt temp ${Temp} ${Temp} 2.0 y 0 0 5 z 0 0 5 couple yz
fix  npt        all npt temp 1 ${Temp} 2.0 y 0 0 5 z 0 0 5 couple yz
fix  npt        all npt temp 1 1 2.0 y 0 0 5 z 0 0 5 couple yz
fix  mom        all momentum 10000 linear 1 1 1
fix  deform     all deform 1 x erate ${gamma_rate} remap x units box
fix  deform     all deform 1 x erate 5e-05 remap x units box

# THERMO
variable  thermo_frq equal ${Nfreq}
variable  thermo_frq equal 4000
thermo    ${thermo_frq}
thermo    4000
thermo_style  custom step time temp press pe ke ebond etotal epair ecouple lx ly lz pxx pyy pzz pxy pxz pyz cpu cpuremain

# deform
run ${Run}
run 40000000

CITE-CITE-CITE-CITE-CITE-CITE-CITE-CITE-CITE-CITE-CITE-CITE-CITE

Your simulation uses code contributions which should be cited:

- GPU package (short-range, long-range and three-body potentials): doi:10.1016/j.cpc.2010.12.021, doi:10.1016/j.cpc.2011.10.012, doi:10.1016/j.cpc.2013.08.002, doi:10.1016/j.commatsci.2014.10.068, doi:10.1016/j.cpc.2016.10.020, doi:10.3233/APC200086

@Article{Brown11,
 author = {W. M. Brown and P. Wang and S. J. Plimpton and A. N. Tharrington},
 title = {Implementing Molecular Dynamics on Hybrid High Performance Computers---Short Range Forces},
 journal = {Comput.\ Phys.\ Commun.},
 year =    2011,
 volume =  182,
 pages =   {898--911},
 doi =     {10.1016/j.cpc.2010.12.021}
}

@Article{Brown12,
 author = {W. M. Brown and A. Kohlmeyer and S. J. Plimpton and A. N. Tharrington},
 title = {Implementing Molecular Dynamics on Hybrid High Performance Computers - Particle-Particle Particle-Mesh},
 journal = {Comput.\ Phys.\ Commun.},
 year =    2012,
 volume =  183,
 doi =     {10.1016/j.cpc.2011.10.012},
 pages =   {449--459}
}

@Article{Brown13,
 author = {W. M. Brown and Y. Masako},
 title = {Implementing Molecular Dynamics on Hybrid High Performance Computers---Three-Body Potentials},
 journal = {Comput.\ Phys.\ Commun.},
 year =    2013,
 volume =  184,
 pages =   {2785--2793},
 doi =     {10.1016/j.cpc.2013.08.002},
}

@Article{Trung15,
 author = {T. D. Nguyen and S. J. Plimpton},
 title = {Accelerating Dissipative Particle Dynamics Simulations for Soft Matter Systems},
 journal = {Comput.\ Mater.\ Sci.},
 year =    2015,
 doi =     {10.1016/j.commatsci.2014.10.068},
 volume =  100,
 pages =   {173--180}
}

@Article{Trung17,
 author = {T. D. Nguyen},
 title = {{GPU}-Accelerated {T}ersoff Potentials for Massively Parallel
    Molecular Dynamics Simulations},
 journal = {Comput.\ Phys.\ Commun.},
 year =    2017,
 doi =     {10.1016/j.cpc.2016.10.020},
 volume =  212,
 pages =   {113--122}
}

@inproceedings{Nikolskiy19,
 author = {V. Nikolskiy and V. Stegailov},
 title = {{GPU} Acceleration of Four-Site Water Models in {LAMMPS}},
 booktitle = {Proceedings of the International Conference on Parallel
    Computing (ParCo 2019), Prague, Czech Republic},
 doi =     {10.3233/APC200086},
 year =    2019
}

- neighbor multi command: doi:10.1016/j.cpc.2008.03.005, doi:10.1007/s40571-020-00361-2

@Article{Intveld08,
 author =  {in 't Veld, P. J. and S. J.~Plimpton and G. S. Grest},
 title =   {Accurate and Efficient Methods for Modeling Colloidal
            Mixtures in an Explicit Solvent using Molecular Dynamics},
 journal = {Comput.\ Phys.\ Commut.},
 year =    2008,
 volume =  179,
 pages =   {320--329}
}

@article{Shire2020,
 author = {Shire, Tom and Hanley, Kevin J. and Stratford, Kevin},
 title = {{DEM} Simulations of Polydisperse Media: Efficient Contact
          Detection Applied to Investigate the Quasi-Static Limit},
 journal = {Computational Particle Mechanics},
 year = {2020}
}

CITE-CITE-CITE-CITE-CITE-CITE-CITE-CITE-CITE-CITE-CITE-CITE-CITE

Generated 0 of 36 mixed pair_coeff terms from geometric mixing rule
WARNING: Communication cutoff adjusted to 4 (src/comm.cpp:732)
WARNING: Inconsistent image flags (src/domain.cpp:819)
Per MPI rank memory allocation (min/avg/max) = 55.66 | 55.74 | 55.91 Mbytes
   Step          Time           Temp          Press          PotEng         KinEng         E_bond         TotEng         E_pair        Ecouple           Lx             Ly             Lz            Pxx            Pyy            Pzz            Pxy            Pxz            Pyz            CPU          CPULeft    
         0   0              1.0009843      0.15259007     7.5834537      1.5014698      10.393884      9.0849235     -2.8104303      0              59.173567      59.173567      59.173567      0.23809599     0.17070386     0.048970364    0.061796375    0.033723384    0.011489447    0              0            
      4000   4              0.99809544    -0.08228036     7.5865767      1.4971365      10.394287      9.0837132     -2.8077101      319.7423       59.185402      59.186832      59.186832     -0.074352191   -0.010597867   -0.16189102     0.010170762    0.014380593    0.038406618    23.516759      235144.09    
      8000   8              1.0016339     -0.039748591    7.5856847      1.5024442      10.395106      9.0881288     -2.8094211     -631.65547      59.197237      59.169638      59.169638      0.05875236    -0.039748527   -0.13824961    -0.020864674    0.058691552    0.025667726    46.248727      231197.39    
     12000   12             1.0013127     -0.044505876    7.5895641      1.5019624      10.397491      9.0915265     -2.8079268     -1350.9863      59.209071      59.173575      59.173575      0.066174816   -0.079808487   -0.11988396    -0.044114809    0.023257105   -0.02290328     69.09944       230262.38    
     16000   16             0.99873642     0.0068987424   7.5857411      1.498098       10.391869      9.0838391     -2.8061275      431.59984      59.220906      59.163562      59.163562      0.024355007   -0.058084925    0.054426146   -0.0087247729   0.094030598    0.058884627    92.846255      232022.79    
     20000   20             1.0032432     -0.050177838    7.5855926      1.5048581      10.394914      9.0904507     -2.8093215     -1014.9869      59.232741      59.149928      59.149928     -0.058714987   -0.013735991   -0.078082536    0.028290252   -0.037883916    0.018019615    118.63973      237160.82    
     24000   24             0.99931189     0.032239864    7.5900773      1.4989612      10.394717      9.0890385     -2.80464       -647.64212      59.244576      59.176653      59.176653     -0.03036045     0.069837978    0.057242063   -0.0043537298   0.15658041     0.20539148     144.70635      241032.54    
     28000   28             1.0001171     -0.074776985    7.5864957      1.500169       10.392041      9.0866646     -2.8055449     -64.224477      59.25641       59.152104      59.152104     -0.21085549    -0.10149391     0.088018445   -0.026684167    0.029714809    0.00994679     170.4566       243338.98    
     32000   32             1.0009538      0.05369884     7.5884484      1.5014241      10.39379       9.0898725     -2.8053417     -740.36786      59.268245      59.144691      59.144691     -0.048837957    0.072667903    0.13726658     0.10703967    -0.0050447283   0.05414495     196.29865      245177.02    
     36000   36             1.0023401      0.026559458    7.5913489      1.5035035      10.395926      9.0948524     -2.8045772     -1816.015       59.28008       59.144246      59.144246     -0.032493111    0.13677363    -0.024602139   -0.032935921    0.021274661    0.0091846349   222.05434      246504.99    
     40000   40             0.99859367    -0.065662803    7.5905531      1.4978839      10.394614      9.088437      -2.8040608     -319.4826       59.291914      59.153894      59.153894     -0.1147648     -0.10754777     0.025324167   -0.013293254    0.020409617   -0.058213032    250.58621      250335.62    
     44000   44             1.001127      -0.081151638    7.5858709      1.5016838      10.392506      9.0875547     -2.8066348     -72.862927      59.303749      59.130396      59.130396     -0.056796973   -0.035517858   -0.15114008    -0.13911311     0.037350354    0.068751724    279.21948      253556.67    
     48000   48             0.99815889     0.03777424     7.5893162      1.4972317      10.389801      9.0865479     -2.800485       201.31767      59.315584      59.161787      59.161787      0.16656997     0.085491862   -0.13873911    -0.032550151    0.014310303    0.038861759    307.99905      256357.88    
     52000   52             1.0000221      0.07092003     7.5940687      1.5000265      10.396977      9.0940952     -2.8029081     -1452.3174      59.327419      59.129134      59.129134      0.029680472    0.07702769     0.10605193     0.039443684   -0.039676433    0.10320737     337.17494      259028.16    
     56000   56             0.99896353    -0.014434778    7.58702        1.4984387      10.392886      9.0854587     -2.8058662      545.45113      59.339253      59.120882      59.120882     -0.17418111     0.075288531    0.055588249   -0.069784191   -0.045806937   -0.10705204     365.96743      261039.34    
     60000   60             0.99959388     0.19321352     7.5887403      1.4993842      10.394228      9.0881245     -2.805488      -7.2606518      59.351088      59.10503       59.10503       0.22809434     0.14219622     0.20934999     0.047995119    0.084898       0.13545087     394.58542      262662.36    
     64000   64             1.000018      -0.048584172    7.5943673      1.5000204      10.394678      9.0943877     -2.8003112     -1373.6159      59.362923      59.137557      59.137557     -0.15151056     0.12702587    -0.12126782    -0.026292908   -0.013908136    0.016036224    423.43139      264221.19    
     68000   68             1.0006401     -0.069365208    7.5980754      1.5009534      10.398707      9.0990288     -2.8006313     -2372.8865      59.374757      59.118572      59.118572     -0.044331242   -0.09256289    -0.071201492   -0.1024008      0.012201544    0.0097709081   452.07492      265474.35    
     72000   72             1.002311      -0.11474491     7.5880831      1.5034598      10.389764      9.0915428     -2.8016805     -636.22157      59.386592      59.113986      59.113986     -0.28279652    -0.050688399   -0.010749803   -0.035360599   -0.036162348    0.033296327    481.13628      266816.8     
     76000   76             1.0000602      0.15052112     7.5912652      1.5000836      10.392963      9.0913488     -2.8016977     -542.44902      59.398427      59.103331      59.103331      0.15056629     0.14685284     0.15414424    -0.043789522    0.033631491    0.039558953    509.84126      267827.66    
     80000   80             0.99679978    -0.16636356     7.5949722      1.495193       10.39372       9.0901652     -2.7987479     -225.59684      59.410262      59.112418      59.112418     -0.30945324    -0.18702574    -0.0026116938  -0.063797103   -0.021948278    0.011338834    538.8071       268864.74    
     84000   84             1.0017473     -0.044519134    7.5943199      1.5026144      10.394526      9.0969342     -2.8002058     -1707.3771      59.422096      59.104696      59.104696     -0.14329706    -0.038968242    0.048707903    0.01362321     0.025599831    0.063076198    567.79994      269813.13    
     88000   88             0.99851387    -0.025387793    7.5915109      1.4977642      10.394377      9.0892751     -2.8028666      72.78506       59.433931      59.089413      59.089413     -0.14437545     0.023650783    0.044561293   -0.066713272    0.12602644    -0.050835839    597.03937      270784.49    
     92000   92             0.99776663     0.084729634    7.5926621      1.4966433      10.39637       9.0893054     -2.8037078      115.87896      59.445766      59.067162      59.067162      0.076525202    0.057487892    0.12017581    -0.036210386    0.15644572     0.10790985     626.3445       271697.35    
     96000   96             0.99894174     0.035289805    7.5998889      1.498406       10.398121      9.0982949     -2.7982323     -1866.594       59.4576        59.086432      59.086432     -0.06722099     0.1935879     -0.020497497    0.029542531   -0.042267682   -0.054939478    655.25829      272369.03    
    100000   100            1.0023647     -0.11240387     7.5972046      1.5035405      10.394592      9.1007451     -2.7973875     -2372.2102      59.469435      59.09976       59.09976      -0.078881104   -0.024249459   -0.23408106     0.092954812   -0.13340708    -0.057237599    684.30002      273035.71    
    104000   104            0.99934372     0.14734933     7.5922303      1.4990089      10.394336      9.0912392     -2.802106      -176.72763      59.48127       59.070802      59.070802      0.011762945    0.21845663     0.21182842     0.09375869    -0.086158663    0.061960344    712.81288      273445.99    
    108000   108            0.99901864    -0.028921161    7.589438       1.4985213      10.392289      9.0879593     -2.8028507      614.32863      59.493105      59.065839      59.065839     -0.20528365    -0.017952395    0.13647256    -0.030515537   -0.03272242     0.019412504    741.50514      273890.03    
    112000   112            0.99765199    -0.075648259    7.5883601      1.4964714      10.391171      9.0848315     -2.802811       1369.9327      59.504939      59.054545      59.054545      0.032251006   -0.046913252   -0.21228253     0.11622992    -0.023853938    0.058588982    770.33381      274348.88    
    116000   116            1.000161      -0.1538602      7.5935691      1.5002349      10.395266      9.093804      -2.8016968     -606.52306      59.516774      59.046282      59.046282     -0.23643279    -0.098788487   -0.12635933     0.040725179    0.054094271   -0.099715437    799.61417      274929.41    
    120000   120            0.99694935    -0.028121408    7.5976634      1.4954174      10.396229      9.0930808     -2.7985659     -393.61992      59.528609      59.056154      59.056154     -0.11652544    -0.0027470281   0.034908245    0.041579736   -0.036230309   -0.033176675    828.32494      275279.99    
    124000   124            0.99695708    -0.03365788     7.5908126      1.495429       10.39329       9.0862416     -2.8024771      1199.7438      59.540443      59.038508      59.038508     -0.13534977     0.069925565   -0.035549432    0.034469896    0.060435092   -0.055920562    857.19419      275657.06    
    128000   128            0.99947459     0.0051723437   7.5960082      1.4992053      10.397423      9.0952134     -2.8014144     -777.51951      59.552278      59.029006      59.029006     -0.15821451     0.095176654    0.07855489    -0.038362141    0.02823083     0.080494307    885.94181      275970.87    
    132000   132            1.0009461     -0.04178392     7.5898609      1.5014125      10.393108      9.0912734     -2.803247       159.28835      59.564113      59.029371      59.029371     -0.042018733   -0.062960216   -0.020372811    0.020139083   -0.047741709    0.042184266    914.9595       276345.5     
    136000   136            0.99665474     0.0050636392   7.5928541      1.4949755      10.395322      9.0878296     -2.8024678      987.17837      59.575948      59.018928      59.018928     -0.059004934    0.0538186      0.020377251   -0.045502735   -0.0075803909  -0.029410391    943.68582      276610.97    
    140000   140            1.002586       0.037350872    7.5953509      1.5038723      10.396676      9.0992232     -2.8013247     -1536.9847      59.587782      59.013633      59.013633     -0.1303746      0.10804146     0.13438576     0.066095819   -0.01932668     0.014843531    972.55372      276899.94    
    144000   144            0.99925724    -0.047409879    7.593132       1.4988792      10.395081      9.0920112     -2.8019492      141.62704      59.599617      59.020988      59.020988     -0.14351636     0.08132812    -0.080041393    0.032881154    0.0023951408  -0.088126892    1001.3267      277144.97    
    148000   148            1.0001419      0.090029579    7.5898151      1.5002063      10.392107      9.0900213     -2.8022917      640.73524      59.611452      58.987918      58.987918     -0.055817622    0.15574408     0.17016228    -0.0072341649  -0.13784132    -0.017870295    1030.5375      277493.12    
    152000   152            1.0029781      0.033908515    7.5947357      1.5044604      10.394076      9.0991962     -2.7993405     -1381.7328      59.623286      59.016904      59.016904     -0.065561512    0.16584948     0.0014375795   0.074558119   -0.020677601   -0.01395723     1060.0977      277912.97    
    156000   156            0.99613524    -0.083643571    7.5972448      1.4941963      10.398082      9.091441      -2.8008377      420.77205      59.635121      58.996375      58.996375     -0.2073025      0.082783746   -0.12641196    -0.045297477   -0.036017915   -0.10482131     1089.2429      278203.8     
    160000   160            1.0013817      0.090187688    7.5914084      1.5020659      10.390809      9.0934743     -2.7994003      8.9579837      59.646956      59.002777      59.002777      0.0040207857   0.18529461     0.081247667   -0.087236284   -0.017441725    0.02753446     1118.1075      278408.77    
    164000   164            1.0026237     -0.062658325    7.5929033      1.5039289      10.394091      9.0968322     -2.8011879     -699.03186      59.658791      58.990987      58.990987     -0.11417553    -0.089326014    0.015526567   -0.04252258     0.066280449    0.0038686649   1146.293       278437.36    
    168000   168            0.99892304    -0.10042497     7.5890256      1.4983779      10.393371      9.0874035     -2.8043459      1482.3431      59.670625      58.967886      58.967886     -0.1345982     -0.1108022     -0.055874506   -0.046736947   -0.017115743   -0.12223963     1174.8685      278555.73    
    172000   172            0.99828489     0.057854433    7.5942626      1.4974207      10.395808      9.0916833     -2.8015454      567.22234      59.68246       58.962259      58.962259     -0.022688157    0.2025097     -0.006258246   -0.01404922     0.033458463   -0.11523831     1204.4063      278890.08    
    176000   176            1.0021614      0.11352122     7.5949902      1.5032355      10.39255       9.0982257     -2.7975601     -861.10406      59.694295      58.991962      58.991962      0.099847495    0.12610792     0.11460825     0.055092106    0.017250824   -0.0079299996   1233.655       279142.47    
    180000   180            1.0037203     -0.013089762    7.5975403      1.5055738      10.39552       9.1031141     -2.7979795     -1914.6134      59.706129      58.98231       58.98231      -0.11577783     0.10537594    -0.028867394    0.016441669    0.11605437     0.057815999    1263.4488      279502.95    
    184000   184            1.00096        0.12330835     7.5923675      1.5014333      10.392411      9.0938008     -2.8000432      238.95596      59.717964      58.96318       58.96318      -0.0016607779   0.16027859     0.21130724     0.0086125551   0.016240295   -0.0097642578   1292.4639      279677.96    
    188000   188            1.0015488      0.056739904    7.5911982      1.5023165      10.390998      9.0935147     -2.7997996      354.04739      59.729799      58.95026       58.95026      -0.040935892    0.16043238     0.050723223   -0.041295893    0.023853901    0.047424319    1321.7078      279892.72    
    192000   192            1.0015285     -0.067835601    7.5996535      1.5022862      10.395043      9.1019396     -2.7953892     -1498.379       59.741634      58.971798      58.971798     -0.20380605    -0.043242127    0.043541377   -0.036592812   -0.0078223027   0.005886096    1350.8346      280073.04    
    196000   196            0.99995281     0.029760294    7.5942585      1.4999226      10.392127      9.0941811     -2.7978682      302.58869      59.753468      58.945629      58.945629     -0.058634495    0.11834058     0.029574798   -0.056330627    0.088623302    0.10549205     1380.2784      280309.19    
    200000   200            1.0021538     -0.12492416     7.5914713      1.503224       10.394227      9.0946953     -2.8027561      238.31983      59.765303      58.935792      58.935792     -0.13592938    -0.047292326   -0.19155077    -0.018112889   -0.054977384    0.049825038    1409.5531      280501.06    
    204000   204            0.99954219    -0.14328054     7.5978393      1.4993067      10.3956        9.0971459     -2.797761      -265.09014      59.777138      58.952313      58.952313     -0.22671202    -0.12660466    -0.076524928    0.18469107     0.014228143   -0.0044854024   1438.4569      280611.92    
    208000   208            1.0022054     -0.11978707     7.5986449      1.5033015      10.395171      9.1019464     -2.7965262     -1298.322       59.788972      58.949649      58.949649     -0.22017719    -0.039542139   -0.099641873    0.064113897    0.1945288      0.080754424    1468.1056      280859.89    
    212000   212            0.9981625      0.10551879     7.5959191      1.4972371      10.394089      9.0931562     -2.7981696      738.01535      59.800807      58.924056      58.924056      0.069908408    0.20678171     0.039866243   -0.032743169    0.02594173     0.01950498     1497.0714      280969.24    
    216000   216            1.0006227     -0.097095248    7.5943578      1.5009275      10.391485      9.0952853     -2.7971267      305.68816      59.812642      58.929101      58.929101     -0.27995333    -0.01791126     0.0065788438   0.047001926   -0.0010832405  -0.077476238    1526.5713      281171.81    
    220000   220            1.0025874     -0.02479785     7.5999031      1.5038744      10.395535      9.1037775     -2.7956318     -1563.2189      59.824477      58.912026      58.912026     -0.062788346    0.089335142   -0.10094034    -0.099738011   -0.053719608    0.050037361    1555.7823      281313.73    
    224000   224            1.0002389     -0.14295842     7.5948863      1.5003518      10.395282      9.095238      -2.8003956      416.72477      59.836311      58.893018      58.893018     -0.28359961    -0.14749197     0.0022163175  -0.058161057   -0.047305046    0.072333693    1585.2001      281486.25    
    228000   228            1.0003271     -0.08988415     7.5942355      1.500484       10.39492       9.0947196     -2.8006844      584.49994      59.848146      58.897322      58.897322     -0.081272243   -0.010818769   -0.17756144     0.0095410344   0.10673383    -0.028635036    1614.3028      281596.71    
    232000   232            1.0015167      0.0002674008   7.5993949      1.5022684      10.396171      9.1016634     -2.796776      -933.32918      59.859981      58.909629      58.909629     -0.0040827418  -0.083405045    0.088289989    0.13566122    -0.034124712   -0.061704459    1643.6752      281748.6     
    236000   236            0.9995405      0.0013690319   7.595188       1.4993041      10.393415      9.0944921     -2.7982271      737.13168      59.871815      58.887287      58.887287     -0.15415538     0.027244976    0.1310175      0.038899295    0.0805881      0.074763857    1672.8963      281868.85    
    240000   240            1.0022673     -0.047103412    7.5897609      1.5033943      10.390237      9.0931552     -2.8004757      1087.5318      59.88365       58.870383      58.870383     -0.11510651    -0.040172436    0.013968707   -0.058375415   -0.022681751    0.029555212    1702.5695      282059.01    
    244000   244            0.99991091    -0.064753039    7.5974235      1.4998597      10.394321      9.0972833     -2.7968978      206.12477      59.895485      58.903493      58.903493      0.06063835    -0.1271109     -0.12778656    -0.11362255    -0.014003671    0.047764394    1731.7163      282156.2     
    248000   248            1.000994      -0.15746474     7.6009756      1.5014844      10.395647      9.10246       -2.7946716     -912.22514      59.90732       58.8951        58.8951       -0.26851544    -0.055152993   -0.1487258      0.019900832    0.069771376   -7.7577094e-05  1761.089       282285.52    
    252000   252            0.99904543     0.0092627667   7.5946948      1.4985615      10.394076      9.0932563     -2.7993813      1216.5517      59.919154      58.859725      58.859725     -0.053213311   -0.032743637    0.11374525    -0.029055159    0.040428349   -0.085843106    1790.5938      282430.64    
    256000   256            1.0019702     -0.045407471    7.5959741      1.5029487      10.39208       9.0989228     -2.7961059     -13.95574       59.930989      58.885305      58.885305     -0.1018051      0.059594928   -0.094012239   -0.051261574    0.01093735    -0.081410511    1819.6616      282502.47    
    260000   260            1.0012362      0.0074033607   7.5969617      1.5018477      10.392794      9.0988094     -2.7958322      60.930343      59.942824      58.878057      58.878057     -0.12093957    -0.0046376432   0.1477873      0.029422469    0.017109401    0.017444415    1849.1266      282631.89    
    264000   264            0.99585653    -0.08553682     7.5943822      1.4937782      10.394714      9.0881604     -2.8003317      2518.8895      59.954658      58.84745       58.84745      -0.11311615    -0.12922995    -0.014264355    0.024195973   -0.090614174   -0.017132926    1878.1993      282697.46    
    268000   268            0.99931817    -0.13316761     7.593095       1.4989706      10.391769      9.0920656     -2.7986736      1687.2989      59.966493      58.850868      58.850868     -0.28364703     0.02367694    -0.13953274    -0.0058923318   0.092183606   -0.073560951    1907.8239      282842.01    
    272000   272            1.0015943     -0.02751054     7.5965192      1.5023849      10.394611      9.0989041     -2.7980922      192.35627      59.978328      58.859582      58.859582     -0.083992074    0.1239076     -0.12244714     0.00018851003  0.051367488   -0.086969379    1937.4276      282978.39    
    276000   276            0.99886077    -0.049876547    7.5954173      1.4982845      10.393744      9.0937019     -2.798327       1418.4233      59.990163      58.841717      58.841717     -0.10290881    -0.050808056    0.0040872245  -0.030752377    0.0066708112   0.038588457    1966.8706      283086.83    
    280000   280            0.99673534    -0.0096050674   7.5980724      1.4950964      10.394726      9.0931688     -2.7966534      1590.0043      60.001997      58.837747      58.837747     -0.11918198     0.084507652    0.0058591304  -0.062780537    0.072256334    0.11575495     1996.3656      283198.72    
    284000   284            0.99770152    -0.069029668    7.6032478      1.4965457      10.39926       9.0997935     -2.7960122      146.82911      60.013832      58.826217      58.826217     -0.26955573     0.0050513174   0.057415404    0.086755018   -0.049284376    0.036482462    2025.5239      283259.54    
    288000   288            0.99881422    -0.12150446     7.5949387      1.4982147      10.394805      9.0931534     -2.7998664      1696.8093      60.025667      58.819446      58.819446     -0.23704626    -0.12348811    -0.0039790125   0.022325284    0.0016946047   0.0057236753   2054.919       283350.5     
    292000   292            1.0003627      0.038486548    7.5974757      1.5005374      10.39485       9.0980131     -2.7973748      648.78361      60.037501      58.80922       58.80922       0.08512898     0.05011167    -0.019781005    0.05192226     0.0050670356   0.0072268645   2084.4549      283457.32    
    296000   296            1.0023426     -0.076436246    7.5983166      1.5035072      10.396319      9.1018238     -2.7980021     -162.39058      60.049336      58.801236      58.801236     -0.17783552    -0.037413374   -0.014059845    0.07276352    -0.057737371   -0.082745489    2113.8873      283546.56    
    300000   300            0.99946579    -0.14436998     7.5958953      1.499192       10.395024      9.0950873     -2.799129       1409.5122      60.061171      58.792324      58.792324     -0.18472189    -0.20618704    -0.042201005   -0.059934956    0.073151211   -0.053927807    2143.2001      283616.81    
    304000   304            0.99796349    -0.23401193     7.5998791      1.4969386      10.393935      9.0968177     -2.7940562      1068.6228      60.073006      58.824147      58.824147     -0.33557821    -0.11256102    -0.25389655     0.021036011   -0.072199671   -0.025252619    2172.5199      283685.36    
    308000   308            1.0005044     -0.016740229    7.6036225      1.5007499      10.400043      9.1043725     -2.7964203     -586.40549      60.08484       58.797514      58.797514     -0.20583775     0.15183014     0.0037869152  -0.053209259    0.084891638   -0.078377001    2201.9363      283763.82    
    312000   312            0.99902594    -0.11360065     7.5985452      1.4985323      10.393045      9.0970774     -2.7945002      1110.4077      60.096675      58.802786      58.802786     -0.27525433    -0.013141573   -0.052406056    0.00062651507 -0.046349345   -0.00054052381  2231.1704      283816.31    
    316000   316            1.0015224      0.0032602938   7.5953157      1.5022769      10.390947      9.0975927     -2.7956313      1043.4643      60.10851       58.788227      58.788227      0.025232369    0.055910868   -0.071362356   -0.030873866    0.01909815     0.018216816    2260.4952      283878.14    
    320000   320            1.0002634     -0.19184598     7.5979478      1.5003884      10.393675      9.0983361     -2.7957273      928.23469      60.120344      58.798212      58.798212     -0.46665372     0.014157858   -0.1230421     -0.049177361   -0.023743832   -0.023826756    2289.5717      283906.89    
    324000   324            1.0023717      0.054713477    7.5978453      1.5035509      10.391321      9.1013962     -2.7934759      285.17104      60.132179      58.796157      58.796157     -0.16410081     0.17107201     0.15716923    -0.022264806   -0.085721919   -0.034350672    2318.6648      283936.25    
    328000   328            1.0013945     -0.012167819    7.6014571      1.5020852      10.395245      9.1035423     -2.7937878     -146.29485      60.144014      58.77257       58.77257      -0.17264493     0.082419755    0.05372172    -0.034132634   -0.01355221    -0.050910529    2348.3671      284037.87    
    332000   332            1.0010586     -0.16169755     7.5944516      1.5015812      10.389973      9.0960328     -2.7955211      1599.8107      60.155849      58.771922      58.771922     -0.25159914    -0.10748504    -0.12600846    -0.16713842    -0.047178966   -0.048467712    2378.0844      284138.11    
    336000   336            1.003395      -0.11405303     7.5990286      1.5050858      10.39569       9.1041144     -2.7966614     -171.8699       60.167683      58.764332      58.764332     -0.17787532     0.011595152   -0.17587892    -0.033518785   -0.12109321     0.097430839    2408.1815      284280.1     
    340000   340            1.0000774     -0.018584847    7.6023829      1.5001095      10.395405      9.1024923     -2.7930218      244.7853       60.179518      58.771847      58.771847     -0.056595344    0.11067707    -0.10983627    -0.095818907   -0.016036474    0.015064362    2437.6186      284341.04    
    344000   344            0.99880327     0.018906765    7.5985618      1.4981983      10.391562      9.0967601     -2.7930002      1589.8799      60.191353      58.776468      58.776468     -0.086055382    0.13546386     0.0073118167   0.026334465   -0.00041513774  0.0074360128   2467.0433      284398.45    
    348000   348            1.0007048     -0.011017867    7.5981984      1.5010506      10.396382      9.0992489     -2.7981839      1080.0049      60.203187      58.742711      58.742711     -0.089335035    0.11139664    -0.05511521    -0.028523279   -0.010512041   -0.051446977    2496.2679      284431.08    
    352000   352            1.003487      -0.065776578    7.6000687      1.5052239      10.396872      9.1052926     -2.7968038     -233.6684       60.215022      58.743643      58.743643     -0.15931861    -0.02027443    -0.017736695    0.027486542   -0.0011826598   0.063921465    2525.5086      284464.11    
    356000   356            1.0020703      0.089107809    7.5939556      1.5030987      10.391397      9.0970544     -2.7974409      1678.8539      60.226857      58.72864       58.72864      -0.12263705     0.14037636     0.24958411    -0.018211662   -0.10744849    -0.052001308    2555.1884      284544.64    
    360000   360            1.0010006      0.054171607    7.5950822      1.5014943      10.390659      9.0965765     -2.7955765      1836.435       60.238692      58.726115      58.726115     -0.10211584     0.11049601     0.15413465     0.034379765   -0.014517286    0.13381313     2584.7902      284614.12    
    364000   364            1.0026388      0.087850757    7.6018869      1.5039516      10.395227      9.1058385     -2.7933403     -202.62084      60.250526      58.745971      58.745971     -0.10174499     0.16915441     0.19614285    -0.024724781    0.014776901   -0.037726657    2614.3992      284682.22    
    368000   368            1.0012135     -0.024718654    7.5969276      1.5018135      10.391688      9.0987411     -2.7947606      1450.8234      60.262361      58.718977      58.718977     -0.13530513     0.12243096    -0.061281792   -0.087419083    0.11979899    -0.021763057    2643.7658      284722.09    
    372000   372            0.99774584     0.054459217    7.6007687      1.4966121      10.394415      9.0973809     -2.7936459      1810.931       60.274196      58.72545       58.72545      -0.04745739     0.10111221     0.10972283     0.003802855    0.047575503   -0.014258388    2673.161       284763.5     
    376000   376            0.99892193    -0.074936027    7.6009276      1.4983763      10.394433      9.0993038     -2.7935057      1427.7049      60.28603       58.718285      58.718285     -0.11424408     0.052222025   -0.16278602    -0.023891397    0.038452539   -0.029725304    2702.9389      284843.76    
    380000   380            0.99933431    -0.1041652      7.599417       1.4989948      10.393764      9.0984118     -2.7943474      1681.413       60.297865      58.700078      58.700078     -0.28511873     0.020164568   -0.04754142     0.037547198    0.05324622     0.056331353    2732.4986      284898.94    
    384000   384            1.0006317     -0.10094087     7.5930303      1.5009409      10.388826      9.0939711     -2.7957959      2733.0881      60.3097        58.704489      58.704489     -0.13786255    -0.097163619   -0.06779644    -0.038564649    0.024100509   -0.027426426    2762.1203      284958.75    
    388000   388            0.99812818    -0.027736312    7.6045989      1.4971856      10.39772       9.1017845     -2.793121       1021.7046      60.321535      58.706181      58.706181     -0.098348663   -0.0038821845   0.01902191    -0.026626767   -0.037914577   -0.062054239    2791.4628      284988.21    
    392000   392            1.0002774      0.0069148253   7.5944823      1.5004094      10.390645      9.0948917     -2.796163       2627.674       60.333369      58.677038      58.677038     -0.13767991     0.059319579    0.099104809    0.1128093     -0.10279924    -0.10731441     2820.8104      285016.98    
    396000   396            0.9993302     -0.078249446    7.5962787      1.4989887      10.390554      9.0952673     -2.7942751      2593.2834      60.345204      58.686206      58.686206     -0.17068242    -0.071068594    0.0070026743   0.0089115398  -0.0024205268   0.0060211203   2850.43        285071.79    
    400000   400            1.0031744     -0.023315266    7.596714       1.5047549      10.393296      9.1014689     -2.796582       1245.2906      60.357039      58.66122       58.66122      -0.18223692     0.049768919    0.062522204   -0.074212845    0.041787288    0.014670332    2879.3947      285060.08    
    404000   404            1.0000231     -0.049029088    7.5975275      1.500028       10.391758      9.0975554     -2.7942301      2181.2586      60.368873      58.682239      58.682239     -0.18553247     0.10074802    -0.062302812   -0.047537889    0.046089553    0.062183453    2908.2229      285034.64    
    408000   408            0.99766555     0.023840252    7.5974812      1.4964917      10.393715      9.0939729     -2.7962339      3043.0967      60.380708      58.657791      58.657791     -0.10173871     0.052370411    0.12088905    -0.04405928     0.021390789   -0.10457946     2938.098       285110.73    
    412000   412            0.99910653     0.026241223    7.6040045      1.4986532      10.399076      9.1026577     -2.7950715      1133.9566      60.392543      58.659572      58.659572     -0.12057779     0.21781479    -0.018513328    0.061276941   -0.095951778    0.083897822    2967.0638      285097.38    
    416000   416            0.99957287    -0.12760374     7.5982601      1.4993527      10.393427      9.0976128     -2.7951668      2323.4332      60.404378      58.667038      58.667038     -0.29762844     0.024282513   -0.1094653     -0.01817992     0.02212425    -0.0081676206   2996.4005      285119.03    
    420000   420            0.99628068    -0.072677811    7.5943854      1.4944144      10.392084      9.0887998     -2.7976989      4366.022       60.416212      58.636087      58.636087     -0.087332615    0.045815286   -0.1765161     -0.050177733    0.018305604   -0.082680387    3025.4767      285115.16    
    424000   424            0.99757694    -0.13167636     7.6026824      1.4963588      10.396644      9.0990412     -2.7939619      2105.0101      60.428047      58.655173      58.655173     -0.23890632    -0.069100525   -0.087022243   -0.059495263   -0.037160075   -0.031013229    3054.9703      285149.78    
    428000   428            1.0028868      0.03742259     7.6007275      1.5043235      10.391646      9.105051      -2.7909183      797.97599      60.439882      58.648537      58.648537     -0.053015316    0.14496254     0.02032055     0.010145363   -0.049078196    0.099470197    3084.3503      285172.69    
    432000   432            1.0014758      0.054586144    7.5993061      1.5022071      10.392538      9.1015132     -2.7932316      1649.2037      60.451716      58.658927      58.658927     -0.11554545     0.14796722     0.13133666     0.035859581   -0.0022069843  -0.0012299334   3113.8305      285203.81    
    436000   436            1.0000444     -0.058308189    7.597546       1.50006        10.391018      9.097606      -2.793472       2582.2363      60.463551      58.638489      58.638489     -0.074882602   -0.017637312   -0.082404654   -0.017733674   -0.00018662784 -0.035216066    3143.4761      285248.82    
    440000   440            1.0026661     -0.13449528     7.6004507      1.5039925      10.395459      9.1044432     -2.7950084      1090.9459      60.475386      58.624437      58.624437     -0.33075149    -0.10339478     0.030660427   -0.065416944    0.027474449    0.072909519    3173.1567      285295.63    
    444000   444            1.0003479     -0.077053687    7.6023759      1.5005153      10.39593       9.1028912     -2.7935542      1494.4245      60.487221      58.62647       58.62647      -0.21972724    -0.010115981   -0.0013178397   0.039553304    0.016436132   -0.052216277    3203.0208      285357.41    
    448000   448            0.99982842    -0.0531819      7.5984568      1.499736       10.395599      9.0981928     -2.7971425      2607.5037      60.499055      58.6034        58.6034       -0.18261983     0.10751656    -0.084442429    0.01329077    -0.11031537    -0.063366179    3232.8706      285416.29    
    452000   452            0.99872133    -0.14010017     7.5937136      1.4980754      10.390663      9.091789      -2.7969496      4103.8437      60.51089       58.601553      58.601553     -0.22241678    -0.082203854   -0.11567988    -0.029342203   -0.10945121    -0.019007776    3262.6422      285466.75    
    456000   456            1.0022128     -0.050874987    7.6003039      1.5033126      10.393312      9.1036165     -2.7930083      1483.3149      60.522725      58.608049      58.608049     -0.2142101      0.068970661   -0.0073855204  -0.076980945   -0.040836701   -0.037220452    3292.2675      285503.12    
    460000   460            1.0011842     -0.10725466     7.6023389      1.5017696      10.393583      9.1041085     -2.7912445      1424.5858      60.534559      58.617183      58.617183     -0.39923555     0.10135548    -0.023883896   -0.008223794    0.042565609   -0.018482374    3321.8324      285533.16    
    464000   464            0.99790437    -0.07112188     7.6007361      1.4968499      10.392257      9.097586      -2.7915205      2950.125       60.546394      58.609491      58.609491     -0.14319524    -0.070979099    0.00080869693 -0.009713786   -0.039667521   -0.0088485015   3351.595       285579.01    
    468000   468            1.0032229     -0.075512694    7.6037234      1.5048278      10.393835      9.1085511     -2.7901114      522.38796      60.558229      58.609339      58.609339     -0.17315264    -0.01637904    -0.037006399   -0.067742403    0.03089015    -0.052527716    3381.2653      285615.77    
    472000   472            1.000298      -0.10772469     7.6035207      1.5004404      10.393665      9.1039611     -2.790144       1612.1067      60.570064      58.598139      58.598139     -0.21328606    -0.0067271413  -0.10316086     0.027637455   -0.061208629   -0.021261388    3411.4487      285694.38    
    476000   476            0.99922527    -0.016308213    7.6019127      1.4988313      10.393268      9.100744      -2.7913558      2389.2568      60.581898      58.596606      58.596606     -0.088516906    0.051185674   -0.011593409    0.03964965     0.032385137   -0.061410311    3441.1807      285733.67    
    480000   480            1.0034161      0.049326059    7.6057811      1.5051174      10.398928      9.1108985     -2.7931465      147.44236      60.593733      58.56741       58.56741      -0.054035186    0.13765227     0.064361097    0.034107297    0.080368535    0.017351849    3470.8126      285763.57    
    484000   484            1.0013772     -0.053285334    7.6023994      1.5020592      10.391189      9.1044586     -2.7887896      1651.6753      60.605568      58.570211      58.570211     -0.20877814     0.11554775    -0.066625612    0.081072961   -0.018043833    0.046560217    3500.7453      285817.05    
    488000   488            1.0013583     -0.046859625    7.5979977      1.5020309      10.390441      9.1000286     -2.7924435      2704.1574      60.617402      58.569849      58.569849     -0.20491723    -0.038495405    0.10283376     0.07566852     0.038588681    0.028969779    3530.1781      285828.68    
    492000   492            1.0000471      0.021538608    7.5959842      1.500064       10.389679      9.0960482     -2.7936947      3654.2235      60.629237      58.567402      58.567402     -0.27126306     0.1747926      0.16108629     0.0018757932   0.0033938412  -0.01691631     3559.9192      285864.4     
    496000   496            1.0006149     -0.047138133    7.6004979      1.5009157      10.392502      9.1014137     -2.7920044      2494.1732      60.641072      58.554345      58.554345     -0.09008573     0.037029596   -0.088358265    0.02272098    -0.019675539   -0.015951599    3590.2503      285946.06    
    500000   500            1.0014661     -0.093090169    7.604354       1.5021926      10.393781      9.1065466     -2.7894274      1386.5617      60.652906      58.575161      58.575161      0.005508534   -0.14918101    -0.13559803     0.0088521804   0.030311516    0.12797781     3620.1041      285988.22    
    504000   504            0.99747664    -0.24148607     7.6052555      1.4962083      10.394794      9.1014638     -2.7895383      2586.9658      60.664741      58.569912      58.569912     -0.41957891    -0.32907956     0.024200259    0.025048415   -0.098745195    0.065907381    3649.6         286001.19    
    508000   508            1.0009428     -0.043256535    7.5974625      1.5014075      10.391874      9.09887       -2.7944112      3224.882       60.676576      58.541599      58.541599     -0.22837118    -0.082959661    0.18156124     0.088615094   -0.042384479    0.026368391    3679.9816      286082.35    
    512000   512            1.0012182     -0.10750539     7.605424       1.5018207      10.395874      9.1072447     -2.7904499      1387.8183      60.688411      58.542387      58.542387     -0.25299041    -0.12550175     0.055975981   -0.08117345    -0.021826027    0.0096729612   3709.924       286127.89    
    516000   516            1.0014029      0.004259397    7.6026659      1.5020977      10.391719      9.1047636     -2.7890533      1998.7417      60.700245      58.538957      58.538957     -0.1635606      0.062141897    0.11419689     0.023997914   -0.10142634     0.027952455    3739.9742      286180.51    
    520000   520            0.99747534    -0.089073828    7.6066479      1.4962064      10.394129      9.1028543     -2.7874811      2483.0396      60.71208       58.546753      58.546753     -0.29502911    -0.040948524    0.068756152    0.044520495    0.0100314     -0.037083303    3770.1919      286244.57    
    524000   524            0.99701371    -0.022606369    7.602265       1.4955139      10.393254      9.0977789     -2.7909891      3681.083       60.723915      58.515155      58.515155     -0.21671302     0.048633411    0.1002605      0.034054289   -0.028780524   -0.042519436    3799.8658      286266.23    
    528000   528            0.99784773     0.033146203    7.6080839      1.496765       10.398656      9.1048489     -2.7905724      2136.3813      60.735749      58.513946      58.513946     -0.12557711     0.17809011     0.04692561     0.016300514   -0.028474893    0.11594242     3829.7116      286299.95    
    532000   532            1.0002665      0.078122688    7.6065667      1.5003931      10.396308      9.1069598     -2.7897409      1710.6361      60.747584      58.518345      58.518345     -0.10781831     0.18903425     0.15315212    -0.0072599631  -0.047647395    0.026189281    3859.6857      286342.25    
    536000   536            0.99848516    -0.0055401811   7.6004265      1.4977211      10.391236      9.0981476     -2.7908096      3751.2992      60.759419      58.511707      58.511707     -0.21409325     0.070117413    0.1273553      0.051859735    0.065209073   -0.010422467    3889.2885      286356.12    
    540000   540            0.99900796    -0.066192644    7.6035416      1.4985053      10.395203      9.1020469     -2.7916613      2924.1523      60.771254      58.48982       58.48982      -0.29909893     0.017395533    0.083125463   -0.073591918    0.027042632   -0.00042960934  3919.1714      286389.82    
    544000   544            1.0013065     -0.0076314487   7.6047312      1.5019531      10.394542      9.1066843     -2.789811       1927.6852      60.783088      58.510656      58.510656     -0.17174445    -0.0046488559   0.15349896     0.048517646   -0.036229112    0.063146202    3949.1345      286428.4     
    548000   548            0.99849064    -0.13651744     7.6004621      1.4977293      10.39467       9.0981914     -2.7942084      3899.1811      60.794923      58.470303      58.470303     -0.19601615    -0.032154595   -0.18138157     0.021102396   -0.0038263     -0.00068553371  3978.7471      286440.75    
    552000   552            0.99809084    -0.12111881     7.6055931      1.4971296      10.39429       9.1027228     -2.7886968      2926.574       60.806758      58.507477      58.507477     -0.29326788     0.049897024   -0.11998557     0.025948756   -0.0056295312   0.081486235    4008.5219      286464.08    
    556000   556            0.99950879    -0.071914891    7.6074744      1.4992565      10.394661      9.1067309     -2.7871862      2072.4023      60.818592      58.501521      58.501521     -0.14845979    -0.0081657056  -0.059119182   -0.010239872   -0.12447217    -0.017374355    4037.9832      286464.41    
    560000   560            0.99919193     0.044880464    7.6026571      1.4987813      10.391679      9.1014384     -2.789022       3319.1298      60.830427      58.491448      58.491448     -0.10935078     0.18520503     0.058787143    0.03239508     0.027093054    0.028187945    4067.6409      286478.14    
    564000   564            0.99754542    -0.049295679    7.6047465      1.4963115      10.394091      9.101058      -2.7893448      3459.4065      60.842262      58.479149      58.479149     -0.33081629     0.13678818     0.046141074   -0.0069361643  -0.028895721    0.026704764    4097.5632      286509.75    
    568000   568            1.0020219     -0.0045937788   7.6050241      1.5030262      10.393804      9.1080503     -2.7887794      1931.2495      60.854097      58.464983      58.464983     -0.18320682     0.086195841    0.083229646    0.038229533    0.043896119   -0.095349618    4127.3914      286533.98    
    572000   572            0.99969907    -0.037516185    7.6037641      1.499542       10.393804      9.1033061     -2.7900401      3056.4851      60.865931      58.466804      58.466804     -0.16911351     0.033996767    0.022568189   -0.035734445    0.0058678376   0.0044443826   4157.441       286572.7     
    576000   576            0.99706268     0.10029365     7.6067888      1.4955874      10.393774      9.1023762     -2.7869852      3319.7279      60.877766      58.467657      58.467657     -0.10900728     0.34844297     0.061445261    0.046721492    0.058044836   -0.054439431    4187.4304      286606.35    
    580000   580            0.99971212    -0.070483327    7.6091235      1.4995615      10.394087      9.108685      -2.7849635      1945.974       60.889601      58.477955      58.477955     -0.27163592     0.0067724069   0.053413533    0.046381538    0.12937577    -0.032740791    4217.2917      286630.41    
    584000   584            0.99884726    -0.022258395    7.604226       1.4982643      10.391128      9.1024902     -2.786902       3396.8718      60.901435      58.455172      58.455172     -0.24795735     0.017132386    0.16404978    -0.056640032   -0.040900306    0.019107081    4247.4939      286676.75    
    588000   588            0.99971577    -0.011741387    7.6028561      1.499567       10.391559      9.1024231     -2.7887027      3466.9802      60.91327       58.449339      58.449339     -0.15449067     0.10803116     0.011235354   -0.14157081     0.0013930559  -0.071159109    4277.5235      286710.47    
    592000   592            0.99930472    -0.23962521     7.6122321      1.4989504      10.396535      9.1111825     -2.784303       1542.411       60.925105      58.45249       58.45249      -0.38524897    -0.21779532    -0.11583136     0.01481279    -0.010365394   -0.039047631    4307.3283      286728.37    
    596000   596            0.99951152    -0.066289384    7.6054378      1.4992606      10.393253      9.1046985     -2.7878155      3057.5237      60.93694       58.442395      58.442395     -0.27187175     0.051457596    0.021546005    0.026081241   -0.0045480054  -0.027768574    4337.6355      286778.84    
    600000   600            0.99847123    -0.12158812     7.6056905      1.4977002      10.391574      9.1033907     -2.7858831      3406.1554      60.948774      58.449831      58.449831     -0.25008072    -0.092094179   -0.022589455    0.010598014    0.063304373   -0.019048709    4367.9547      286829.03    
    604000   604            1.0008512     -0.083294814    7.6080263      1.5012702      10.392608      9.1092966     -2.7845821      2124.1842      60.960609      58.444464      58.444464     -0.2521938      0.025310025   -0.023000671    0.041429467    0.040097844    0.091376415    4397.9498      286857       
    608000   608            1.0013991     -0.01050596     7.6066618      1.502092       10.392546      9.1087538     -2.7858846      2299.7221      60.972444      58.419913      58.419913     -0.07413932     0.14758342    -0.10496197     0.029106515   -0.076755791    0.031864173    4428.2835      286906.16    
    612000   612            0.99885514     0.04116526     7.6067406      1.4982761      10.391739      9.1050167     -2.7849985      3195.9644      60.984278      58.428328      58.428328     -0.14529081     0.11374269     0.1550439      0.028265832   -0.03083829     0.010206405    4458.7162      286960.64    
    616000   616            0.99390344    -0.26319788     7.6086173      1.4908486      10.395862      9.0994659     -2.7872442      4504.5938      60.996113      58.407495      58.407495     -0.30439469    -0.19903441    -0.28616453     0.037888925    0.015289264   -0.037689108    4489.194       287016.91    
    620000   620            1.0003149     -0.1321595      7.6076223      1.5004657      10.39449       9.108088      -2.7868679      2607.845       61.007948      58.4074        58.4074       -0.2588967     -0.0318698     -0.105712       0.01915936    -0.057173209    0.015833606    4519.7308      287075.8     
    624000   624            1.0000165     -0.13764651     7.6086936      1.5000181      10.394322      9.1087117     -2.7856284      2519.1083      61.019783      58.39882       58.39882      -0.36739244     0.1194747     -0.16502177    -0.048062093    0.0069380806  -0.10499274     4549.5817      287090.27    
    628000   628            1.0007396      0.0090253015   7.6036912      1.5011027      10.393125      9.104794      -2.7894342      3455.3645      61.031617      58.388479      58.388479     -0.095336679    0.071928586    0.050483997   -0.015619979    0.0097103306   0.001430781    4579.524       287109.9     
    632000   632            1.0007906     -0.015455513    7.6019771      1.5011792      10.389275      9.1031564     -2.7872976      3876.4497      61.043452      58.387281      58.387281     -0.17412724     0.13858935    -0.010828642   -0.043845464    0.031142399   -0.0082718706   4609.349       287121.6     
    636000   636            1.0014771     -0.12587675     7.60842        1.5022091      10.395084      9.1106291     -2.7866642      2243.6138      61.055287      58.387056      58.387056     -0.35337142    -0.013614869   -0.010643947    0.06678877     0.042004425   -0.029459507    4639.5849      287158.2     
    640000   640            0.99801747    -0.060985054    7.6082601      1.4970196      10.395128      9.1052797     -2.7868676      3505.8646      61.067121      58.377937      58.377937     -0.21863386     0.048865675   -0.013186976   -0.013585299   -0.10464577     0.13710129     4669.6013      287180.48    
    644000   644            1.0004552     -0.084878796    7.6043188      1.5006762      10.390688      9.104995      -2.7863695      3621.3091      61.078956      58.374274      58.374274     -0.28246854     0.084496384   -0.056664226    0.089655835    0.016441331    0.0050904527   4699.791       287212.69    
    648000   648            1.0025355     -0.040462681    7.6079423      1.5037965      10.395902      9.1117388     -2.7879601      2150.7507      61.090791      58.377742      58.377742     -0.12925521    -0.010003529    0.017870698    0.042918794    0.046528593    0.024487773    4730.0231      287246.71    
    652000   652            0.99653319    -0.090222333    7.6090261      1.4947932      10.39272       9.1038192     -2.7836942      3992.5723      61.102626      58.389931      58.389931     -0.21770642    -0.064840941    0.011880361    0.04159347     0.094269199   -0.057520843    4760.2946      287282.32    
    656000   656            1.0003241     -0.075223131    7.6064461      1.5004796      10.392687      9.1069257     -2.7862412      3344.3132      61.11446       58.353351      58.353351     -0.22283111    -0.009454802    0.0066165219  -0.022133535    0.085021143    0.02516112     4790.4662      287311.13    
    660000   660            0.99830247    -0.13177854     7.6108681      1.4974471      10.395458      9.1083152     -2.7845903      3084.7016      61.126295      58.365656      58.365656     -0.17791552    -0.11777501    -0.09964509     0.044117215   -0.029225482    0.014374922    4820.8077      287349.36    
    664000   664            0.99800289    -0.0073537725   7.6029442      1.4969977      10.388851      9.0999419     -2.7859067      5028.4937      61.13813       58.346523      58.346523     -0.24317497     0.1426971      0.078416558    0.070421371   -0.064321504   -0.045336324    4850.9884      287377.23    
    668000   668            0.99855431    -0.17526473     7.6076387      1.4978248      10.392567      9.1054635     -2.7849281      3834.4697      61.149964      58.364609      58.364609     -0.31830062    -0.052030093   -0.15546347    -0.021810859    0.0699131      0.079105795    4881.1212      287401.59    
    672000   672            1.0010422     -0.051393249    7.6084296      1.5015567      10.392764      9.1099863     -2.7843347      2865.8842      61.161799      58.33798       58.33798      -0.28122553     0.12198613     0.0050596487   0.025728308   -0.065460172    0.044348987    4911.1576      287419.65    
    676000   676            0.99776628    -0.066983566    7.6094089      1.4966428      10.392119      9.1060517     -2.7827096      3807.89        61.173634      58.346321      58.346321     -0.18040833     0.041689785   -0.062232153   -0.021745955   -0.049288755   -0.0014361367   4941.7087      287467.09    
    680000   680            0.99888115    -0.089346957    7.6064891      1.4983151      10.394342      9.1048042     -2.7878526      4141.2096      61.185469      58.318055      58.318055     -0.16941213     0.094475781   -0.19310453    -0.044874852   -0.014847718   -0.05104777     4971.9011      287492.87    
    684000   684            1.0000089     -0.16447048     7.6108312      1.5000067      10.397189      9.1108379     -2.7863573      2830.7988      61.197303      58.322896      58.322896     -0.27028636     0.026184915   -0.24930998     0.0077436841  -0.036793324    0.026846161    5002.409       287536.13    
    688000   688            1.0009277     -0.21543586     7.6058008      1.5013849      10.393925      9.1071856     -2.788124       3707.5507      61.209138      58.307851      58.307851     -0.46913121    -0.090192487   -0.086983878   -0.013265128   -0.0017946953  -0.08880024     5031.9954      287525.88    
    692000   692            0.99915376    -0.018665477    7.6081605      1.498724       10.394865      9.1068845     -2.7867046      3830.1332      61.220973      58.303315      58.303315     -0.15772919    -0.036363638    0.13809639     0.011257823   -0.016666587    0.0032553142   5061.8518      287530.74    
    696000   696            0.99878794    -0.17062991     7.6114325      1.4981753      10.396782      9.1096078     -2.785349       3268.4328      61.232807      58.316086      58.316086     -0.38875922    -0.051808066   -0.071322447   -0.051608666    0.048590676    0.038468028    5092.1589      287560.65    
    700000   700            1.0016321     -0.28515737     7.6133875      1.5024415      10.396287      9.115829      -2.7828997      1915.3563      61.244642      58.317799      58.317799     -0.36894804    -0.21670172    -0.26982234     0.01275082     0.041986136    0.055936431    5122.2816      287579.53    
    704000   704            1.0024118     -0.033625186    7.6124105      1.5036111      10.397366      9.1160216     -2.7849552      1924.2727      61.256477      58.3032        58.3032       -0.18123718     0.1089551     -0.028593483   -0.03658034    -0.06463782    -0.0073177171   5152.6065      287609.13    
    708000   708            0.99822152    -0.079417846    7.6112367      1.4973257      10.396158      9.1085624     -2.7849216      3661.9383      61.268312      58.29649       58.29649      -0.19755656    -0.0029276489  -0.037769328    0.03955958    -0.051671626    0.14577178     5183.5345      287671.52    
    712000   712            1.001004      -0.0073111487   7.6070973      1.5014994      10.394276      9.1085967     -2.7871785      3706.5051      61.280146      58.274167      58.274167     -0.17404802     0.13761874     0.014495828    0.0059238805   0.017906125    0.040906001    5213.2484      287665.88    
    716000   716            1.0020083     -0.22834958     7.6100968      1.5030058      10.394234      9.1131026     -2.7841367      2740.5889      61.291981      58.290795      58.290795     -0.38248361    -0.17162099    -0.13094413     0.031107825   -0.058274621    0.072833828    5243.6287      287696.52    
    720000   720            1.0032195     -0.18086702     7.6051089      1.5048226      10.392887      9.1099314     -2.7877781      3509.6855      61.303816      58.272937      58.272937     -0.42135711     0.020911133   -0.14215509    -0.050660951    0.084380228    0.0059050928   5273.6713      287708.07    
    724000   724            0.99936535    -0.06046188     7.6074294      1.4990414      10.393277      9.1064708     -2.7858478      4343.9644      61.31565       58.279673      58.279673     -0.091849413   -0.0014366381  -0.08809959     0.064220301    0.02721276     0.011135423    5303.8723      287727.75    
    728000   728            1.0015197     -0.037284947    7.6122747      1.5022728      10.394808      9.1145475     -2.7825337      2573.2751      61.327485      58.277304      58.277304     -0.19388599     0.088875569   -0.0068444163   0.043912093   -0.039297099    0.035456379    5334.5424      287772.18    
    732000   732            1.0017334      0.0073283115   7.6211187      1.5025935      10.401271      9.1237122     -2.7801523      557.29143      61.33932       58.288884      58.288884     -0.20726782     0.13258544     0.096667317   -0.029346182    0.025064386    0.015612086    5364.8095      287794.18    
    736000   736            1.0028092     -0.1813674      7.6083324      1.5042071      10.394247      9.1125395     -2.7859146      3131.5323      61.351155      58.260767      58.260767     -0.33513438    -0.0058120283  -0.2031558      0.0197004      0.1372885     -0.15236477     5395.3861      287832.12    
    740000   740            1.0003973     -0.17791512     7.6040652      1.5005894      10.391699      9.1046545     -2.7876342      4966.1158      61.362989      58.24793       58.24793      -0.28197992    -0.15460673    -0.097158694   -0.090751954    0.051727735    0.00074730301  5426.0703      287875.03    
    744000   744            1.0021248      0.036096401    7.607251       1.5031805      10.394743      9.1104315     -2.7874921      3713.9438      61.374824      58.236467      58.236467     -0.089037012    0.15926475     0.038061464    0.12684727     0.12567036     0.039169632    5456.0571      287880.34    
    748000   748            0.99963228    -0.086978215    7.6108446      1.4994418      10.39515       9.1102864     -2.7843057      3800.8001      61.386659      58.252301      58.252301     -0.29067798     0.055934534   -0.026191202   -0.05573153     0.013309594    0.065304323    5486.018       287883.93    
    752000   752            0.99935121    -0.13922375     7.6100929      1.4990202      10.395749      9.1091131     -2.7856558      4117.3169      61.398493      58.231978      58.231978     -0.389541       0.022687559   -0.0508178     -0.150102       0.012689349   -0.042444865    5515.9143      287883.78    
    756000   756            1.000366      -0.21797151     7.6046062      1.5005424      10.389971      9.1051486     -2.7853652      5063.8137      61.410328      58.236502      58.236502     -0.43683976    -0.16997243    -0.047102349   -0.031494394   -0.11243932    -0.1110152      5546.7047      287929.73    
    760000   760            0.99591109    -0.029745195    7.6117813      1.49386        10.394613      9.1056413     -2.7828321      5008.4163      61.422163      58.228631      58.228631     -0.22159038     0.18199488    -0.049640095    0.0073677347  -0.039508662   -0.010938634    5576.8314      287940.61    
    764000   764            1.0003321     -0.15479793     7.6121475      1.5004914      10.395677      9.1126389     -2.78353        3481.0407      61.433998      58.236604      58.236604     -0.28424987    -0.156399      -0.023744917   -0.071771933    0.0057405249   0.0070266389   5606.9051      287948.34    
    768000   768            0.99986286    -0.0033713834   7.6068034      1.4997877      10.393343      9.106591      -2.7865399      4898.4832      61.445832      58.203555      58.203555     -0.20507062     0.056217392    0.13873908     0.022953253   -0.0066909769   0.1285371      5637.0715      287960.4     
    772000   772            0.99904046    -0.030839157    7.6054694      1.4985541      10.392925      9.1040234     -2.7874552      5532.1694      61.457667      58.201209      58.201209     -0.21762117     0.18216472    -0.057061025    0.028468501   -0.13302565    -0.041033437    5667.4094      287980.74    
    776000   776            1.0034305     -0.083860767    7.6066082      1.5051391      10.390917      9.1117473     -2.7843088      3839.1225      61.469502      58.204322      58.204322     -0.13658749     0.022608177   -0.13760299    -0.032621109   -0.032373076    0.050924567    5697.3525      287980.61    
    780000   780            0.99691015    -0.10776658     7.6096307      1.4953586      10.396626      9.1049893     -2.7869956      5421.6977      61.481336      58.187835      58.187835     -0.24568141     0.046078587   -0.12369692     0.055313235    0.06834064     0.030767258    5727.3439      287982.6     
    784000   784            1.000071      -0.028494587    7.6102323      1.5000998      10.395832      9.1103321     -2.7856         4266.4475      61.493171      58.189095      58.189095     -0.30226569     0.043583294    0.17319863     0.045133428   -0.017648514    0.067754124    5757.2007      287977.53    
    788000   788            1.0009215     -0.049147094    7.6095447      1.5013757      10.395308      9.1109203     -2.7857632      4185.7772      61.505006      58.177267      58.177267     -0.27709257     0.0875681      0.042083192    0.031117886   -0.02921882    -0.062879392    5787.1423      287976.43    
    792000   792            0.99896652    -0.14449963     7.6082013      1.4984432      10.392391      9.1066445     -2.7841896      5204.6645      61.516841      58.186765      58.186765     -0.3447029      0.0055137561  -0.094309752   -0.094345338   -0.011395396   -0.11117149     5816.9053      287966.19    
    796000   796            0.99941112     0.045630686    7.6089749      1.49911        10.394519      9.1080849     -2.7855444      4932.3864      61.528675      58.170048      58.170048     -0.1007447      0.17884224     0.058794511    0.086300601   -0.09998601     0.028833023    5846.6757      287956.12    
    800000   800            1.0005922     -0.14075527     7.6081268      1.5008817      10.393325      9.1090086     -2.7851985      4775.4481      61.54051       58.173854      58.173854     -0.28016191     0.0066743149  -0.14877823    -0.020557076    0.027133438    0.067171812    5876.8043      287963.41    
    804000   804            0.99981376    -0.070166693    7.6097458      1.499714       10.392328      9.1094598     -2.7825819      4726.121       61.552345      58.164886      58.164886     -0.28419826     0.18313795    -0.10943977     0.011873484   -0.027325868    0.0054486673   5907.1665      287981.71    
    808000   808            1.0029078     -0.13506183     7.6079667      1.5043551      10.394424      9.1123219     -2.7864568      4130.5822      61.564179      58.150116      58.150116     -0.19844824    -0.18466939    -0.022067853   -0.038505902   -0.00043386925 -0.10007672     5936.8229      287965.3     
    812000   812            0.99618444    -0.098446331    7.6104602      1.4942701      10.395633      9.1047302     -2.7851726      5898.8065      61.576014      58.151021      58.151021     -0.31486138    -0.11984934     0.13937172    -0.049205722   -0.042600644   -0.05262958     5967.0917      287978.31    
    816000   816            1.0006906     -0.13612132     7.6057683      1.5010293      10.393104      9.1067976     -2.7873357      5484.2771      61.587849      58.143317      58.143317     -0.26629817    -0.074738194   -0.067327609    0.036177856    0.045570032    0.018881793    5997.2356      287984.9     
    820000   820            1.0025077     -0.045304619    7.6051333      1.5037548      10.392371      9.1088881     -2.7872372      5064.9236      61.599684      58.132515      58.132515     -0.10139167     0.016507292   -0.051029484   -0.024332026    0.042902774   -0.0053284064   6027.1462      287979.99    
    824000   824            0.99892384    -0.014790728    7.6110204      1.4983791      10.395931      9.1093995     -2.7849109      5003.9807      61.611518      58.129092      58.129092     -0.24926255     0.065775104    0.13911527     0.026693711    0.11894085     0.04191709     6057.0135      287972.77    
    828000   828            1.0035761     -0.065811414    7.6125115      1.5053575      10.39558       9.117869      -2.7830683      3142.4517      61.623353      58.126111      58.126111     -0.33952167     0.051453585    0.090633844    0.06925912     0.00770264     0.075635642    6087.0447      287973.08    
    832000   832            0.99856547    -0.084605264    7.6121877      1.4978416      10.395543      9.1100293     -2.7833558      4967.7164      61.635188      58.135176      58.135176     -0.14090294    -0.037364732   -0.075548119   -0.077241129   -0.045085202    0.008646778    6116.865       287963.18    
    836000   836            1.0016359     -0.1430487      7.6064342      1.5024471      10.391359      9.1088813     -2.7849245      5278.5919      61.647022      58.124733      58.124733     -0.28995912    -0.0011167227  -0.13807026     0.007286556    0.012139295   -0.050964237    6147.1127      287973.11    
    840000   840            1.0011449     -0.067594169    7.612315       1.5017107      10.395791      9.1140257     -2.7834764      4169.5143      61.658857      58.117153      58.117153     -0.15612415    -0.057885368    0.011227008    0.01847186    -0.024242231   -0.11310277     6177.2217      287976.19    
[...]
  39768000   39768          0.99812583    -0.22498154     7.7323703      1.4971821      10.408049      9.2295524     -2.675679       320823.36      176.83429      34.715882      34.715882     -0.72305876    -0.0081523134   0.056266467   -0.048791426   -0.066492691    0.033715615    322747.57      1882.8565    
  39772000   39772          0.99946529    -0.18993029     7.7302812      1.4991913      10.409918      9.2294725     -2.6796371      320866.67      176.84612      34.693366      34.693366     -0.55167216    -0.014532328   -0.0035863922   0.0096682519   0.031629623    0.084234214    322794.88      1850.4785    
  39776000   39776          0.99871849    -0.081443775    7.7231906      1.4980711      10.403827      9.2212617     -2.6806367      322745.71      176.85796      34.693513      34.693513     -0.61639006     0.26938893     0.1026698      0.019401656    0.014182696    0.036706274    322842.27      1818.0981    
  39780000   39780          1.0019572     -0.24116196     7.7266166      1.5029291      10.406434      9.2295458     -2.6798177      320898.84      176.86979      34.690996      34.690996     -0.76095874     0.021782524    0.015690341    0.15077544    -0.064587381    0.037615119    322889.06      1785.7112    
  39784000   39784          1.0009775     -0.33445779     7.7223185      1.5014595      10.400768      9.223778      -2.6784495      322225.18      176.88163      34.704914      34.704914     -0.83425171    -0.14762529    -0.021496372   -0.065034681   -0.080455639   -0.019188885    322935.96      1753.3221    
  39788000   39788          0.99804112    -0.28077225     7.7207559      1.4970551      10.403476      9.2178109     -2.6827199      323599.67      176.89346      34.682127      34.682127     -0.72775336     0.016950224   -0.13151361    -0.0032024191  -0.075966355   -0.029089213    322983.09      1720.9313    
  39792000   39792          1.0000114     -0.20513913     7.7272041      1.5000105      10.40328       9.2272146     -2.6760763      321500.62      176.9053       34.694742      34.694742     -0.69221284     0.13596699    -0.059171535   -0.028554299    0.045681089    0.17677297     323030.06      1688.5367    
  39796000   39796          1.0029695     -0.30423381     7.7274258      1.5044476      10.404456      9.2318733     -2.6770301      320472.53      176.91713      34.69094       34.69094      -0.81376253     0.020670771   -0.11960967    -0.0019615164  -0.004036767    0.020761796    323077.07      1656.1394    
  39800000   39800          0.99859013    -0.18227901     7.7247795      1.4978786      10.407307      9.2226581     -2.6825271      322580.87      176.92897      34.676719      34.676719     -0.61950193     0.12280879    -0.05014388     0.057939776   -0.045573976    0.028620655    323123.77      1623.7375    
  39804000   39804          1.0001369     -0.19789852     7.7251828      1.5001987      10.407117      9.2253815     -2.6819343      321989.78      176.9408       34.672082      34.672082     -0.72015952     0.13756748    -0.011103511    0.014741933    0.021361687    0.051969387    323170.7       1591.334     
  39808000   39808          1.0017912     -0.27549147     7.7316458      1.5026802      10.410341      9.2343259     -2.6786951      319996.06      176.95264      34.6771        34.6771       -0.6958479      0.021929993   -0.15255651    -0.03190013     0.035782031    0.026324449    323217.62      1558.9274    
  39812000   39812          1.0000656     -0.25507304     7.72866        1.5000918      10.407496      9.2287517     -2.6788365      321278.49      176.96447      34.681988      34.681988     -0.76041659    -0.016421977    0.011619439    0.044670585   -0.022867043    0.02683459     323264.94      1526.5198    
  39816000   39816          0.99785225    -0.29392476     7.7258374      1.4967718      10.405598      9.2226091     -2.6797602      322692.18      176.97631      34.681598      34.681598     -0.74532203    -0.062830437   -0.073621805    0.035308383   -0.035092088    0.080286698    323311.96      1494.1079    
  39820000   39820          1.001271      -0.18612703     7.7267138      1.5018999      10.407083      9.2286136     -2.6803695      321358.81      176.98814      34.672129      34.672129     -0.77165332     0.14072451     0.072547721   -0.056270699   -0.024850345    0.12755317     323358.26      1461.6898    
  39824000   39824          0.99815069    -0.20451584     7.732487       1.4972194      10.411056      9.2297064     -2.6785694      321137.75      176.99997      34.684944      34.684944     -0.78863646     0.083410525    0.091678405    0.032250451   -0.073450019    0.0048086086   323405.59      1429.2734    
  39828000   39828          0.99863641    -0.21062985     7.7237601      1.497948       10.406134      9.2217081     -2.6823735      322969.65      177.01181      34.663344      34.663344     -0.65471597     0.051987684   -0.029161277    0.015399723    0.053358677   -0.018539487    323452.69      1396.853     
  39832000   39832          1.0006265     -0.25082687     7.7278919      1.5009331      10.406008      9.228825      -2.6781165      321387.22      177.02364      34.66984       34.66984      -0.69277006    -0.012977883   -0.046732662   -0.025769277   -0.082111047   -0.050541417    323500.64      1364.4333    
  39836000   39836          1.001755      -0.32456908     7.7257007      1.5026259      10.406076      9.2283266     -2.6803755      321524.47      177.03548      34.673944      34.673944     -0.93224388    -0.043828549    0.0023652039  -0.017645893    0.10203974     0.08053771     323547.38      1332.0055    
  39840000   39840          0.99530791    -0.17672054     7.7284312      1.4929553      10.409093      9.2213864     -2.6806615      323117.91      177.04731      34.67535       34.67535      -0.59559291     0.056271802    0.0091594986  -0.020868075   -0.02727505     0.0014423949   323594.47      1299.5762    
  39844000   39844          0.99997229    -0.21614749     7.7283094      1.4999518      10.409295      9.2282612     -2.6809852      321590.11      177.05915      34.667476      34.667476     -0.630077       0.11475705    -0.13312251     0.091631268    0.021915863    0.1151946      323641.8       1267.1449    
  39848000   39848          0.99885763    -0.30785281     7.7258378      1.4982798      10.403568      9.2241176     -2.6777303      322548.38      177.07098      34.682429      34.682429     -0.82110766    -0.021029793   -0.081420969   -0.017854977    0.012158239    0.061048234    323689.08      1234.7104    
  39852000   39852          0.99956616    -0.12192531     7.7257472      1.4993426      10.404976      9.2250898     -2.6792292      322353.91      177.08282      34.662332      34.662332     -0.65361907     0.14477748     0.14306566     0.030869357   -0.039291107    0.10791803     323736.39      1202.273     
  39856000   39856          1.000366      -0.26016019     7.7300744      1.5005423      10.408225      9.2306167     -2.6781502      321130.38      177.09465      34.67657       34.67657      -0.71835994    -0.012085012   -0.050035615   -0.068812178    0.068475       0.068859141    323784         1169.8338    
  39860000   39860          0.99819943    -0.23855569     7.7252636      1.4972925      10.403917      9.2225562     -2.6786531      322974.36      177.10649      34.674573      34.674573     -0.63857631    -0.041360814   -0.035729946   -0.05195653    -0.073665003    0.15853086     323831.63      1137.3916    
  39864000   39864          0.99867346    -0.18215726     7.7242022      1.4980036      10.405066      9.2222058     -2.6808642      323078.38      177.11832      34.656886      34.656886     -0.66385165     0.098597821    0.018782057    0.034164998    0.0005178444   0.0031198811   323879.74      1104.9479    
  39868000   39868          1.0015184     -0.24623044     7.7276593      1.5022709      10.406538      9.2299302     -2.6788783      321359.18      177.13016      34.661784      34.661784     -0.72459587     0.029726515   -0.043821981    0.023499526   -0.038632928   -0.049942868    323927.38      1072.4996    
  39872000   39872          0.99844709    -0.27673716     7.7267367      1.497664       10.405083      9.2244007     -2.6783462      322633.5       177.14199      34.671987      34.671987     -0.73158301    -0.082023108   -0.016605346    0.10370315    -0.062004521   -0.014030057    323974.43      1040.0463    
  39876000   39876          0.99777456    -0.32414112     7.7260899      1.4966552      10.406501      9.2227451     -2.6804111      323033         177.15383      34.665896      34.665896     -0.74545482    -0.051465844   -0.17550269    -0.022178202    0.060486931   -0.048605358    324022         1007.5917    
  39880000   39880          0.99915941    -0.23099634     7.729223       1.4987325      10.406715      9.2279555     -2.6774918      321881.08      177.16566      34.66634       34.66634      -0.62732146     0.024281977   -0.089949541   -0.084865202   -0.041573684    0.085185624    324069.53      975.134      
  39884000   39884          1.0015605     -0.30611867     7.7272453      1.5023341      10.404831      9.2295795     -2.6775857      321538.25      177.1775       34.656877      34.656877     -0.8107046     -0.087631223   -0.020020182   -0.025526626   -0.094514666    0.11958637     324116.54      942.67171    
  39888000   39888          1.0001651     -0.22389083     7.7240439      1.500241       10.40511       9.224285      -2.6810662      322759.72      177.18933      34.659399      34.659399     -0.60550467    -0.10891443     0.042746603    0.018639078    0.041536692   -0.019733131    324164.44      910.20902    
  39892000   39892          1.0006145     -0.17784399     7.7275681      1.5009151      10.40691       9.2284832     -2.6793424      321835.7       177.20116      34.667177      34.667177     -0.68590752     0.12439981     0.027975747   -0.03962416     0.066113472    0.12394457     324211.48      877.74089    
  39896000   39896          1.0028715     -0.10287379     7.7251732      1.5043006      10.40475       9.2294738     -2.6795763      321635.89      177.213        34.65978       34.65978      -0.64450246     0.19865914     0.13722194    -0.016312344    0.033479343    0.068792157    324258.91      845.27086    
  39900000   39900          1.0015101     -0.32745326     7.7241559      1.5022585      10.402588      9.2264144     -2.6784318      322350.76      177.22483      34.648993      34.648993     -0.76828197    -0.060123319   -0.1539545     -0.067573119   -0.020705169    0.054990772    324306.22      812.79754    
  39904000   39904          1.0013823     -0.33572966     7.7263779      1.5020668      10.407028      9.2284447     -2.6806504      321918.54      177.23667      34.652522      34.652522     -0.82605391    -0.13621945    -0.044915604    0.017562444    0.023391004   -0.0027205117   324353.02      780.32001    
  39908000   39908          1.0018071     -0.22612933     7.7339696      1.502704       10.409427      9.2366737     -2.6754574      320084.44      177.2485       34.671332      34.671332     -0.66391895    -0.037400927    0.022931879    0.0047010705   0.023952158    0.14446572     324399.28      747.83836    
  39912000   39912          0.99752962    -0.284912       7.7298676      1.4962878      10.406288      9.2261554     -2.6764207      322484.3       177.26034      34.663496      34.663496     -0.73819182    -0.013288825   -0.10325535    -0.069866785   -0.11147015    -0.0343175      324445.62      715.35414    
  39916000   39916          0.99966173    -0.15256007     7.7274127      1.499486       10.404389      9.2268986     -2.6769768      322341.1       177.27217      34.66316       34.66316      -0.54613617     0.13909798    -0.050642026   -0.065851217   -0.028149626   -0.028021126    324491.79      682.86679    
  39920000   39920          1.0025948     -0.25796473     7.7300607      1.5038856      10.407403      9.2339463     -2.6773423      320774.35      177.28401      34.658169      34.658169     -0.71441603    -0.035773268   -0.023704902   -0.012955664    0.078169815   -0.024793966    324538.02      650.37679    
  39924000   39924          0.99753351    -0.19586747     7.7278586      1.4962936      10.40349       9.2241522     -2.6756313      323009.67      177.29584      34.661852      34.661852     -0.65760254     0.13167975    -0.061679632    0.027108785   -0.10612003     0.11658731     324584.36      617.88427    
  39928000   39928          0.99976339    -0.14379162     7.7284532      1.4996384      10.405742      9.2280916     -2.6772887      322145.24      177.30768      34.658134      34.658134     -0.54892241    -0.021940611    0.13948815    -0.16405843     0.045111418   -0.12835446     324630.54      585.38867    
  39932000   39932          0.99967539    -0.22664037     7.7301382      1.4995065      10.4065        9.2296447     -2.6763614      321819.71      177.31951      34.656159      34.656159     -0.72471615     0.00044164693  0.0443534     -0.058577426   -0.069677896    0.064228495    324676.76      552.8904     
  39936000   39936          0.99584752    -0.19296835     7.7278608      1.4937647      10.405453      9.2216255     -2.6775926      323655.48      177.33135      34.66091       34.66091      -0.60889929     0.055856743   -0.025862491    0.0017530599  -0.066881976   -0.05083724     324723.2       520.38974    
  39940000   39940          0.99969593    -0.10585906     7.7294946      1.4995373      10.40611       9.2290319     -2.6766155      322008.46      177.34318      34.64536       34.64536      -0.593908       0.17298347     0.10334736     0.083795593    0.030483389    0.060474159    324769.45      487.88601    
  39944000   39944          0.99797585    -0.20026813     7.7257835      1.4969572      10.407023      9.2227406     -2.6812393      323452.96      177.35502      34.639696      34.639696     -0.55011331     0.045740403   -0.096431473    0.083557225    0.018259937   -0.019187157    324815.43      455.37914    
  39948000   39948          0.99854579    -0.24828776     7.7225171      1.4978121      10.402849      9.2203292     -2.6803319      324021.08      177.36685      34.650164      34.650164     -0.73254517     0.027896017   -0.040214136   -0.027731603   -0.0036932064   0.00280992     324861.43      422.86959    
  39952000   39952          1.0009181     -0.25921735     7.7253011      1.5013704      10.406377      9.2266715     -2.681076       322614.5       177.37869      34.638391      34.638391     -0.84389783     0.066662234   -0.00041645106  0.052201783    0.029949076    0.00062663358  324907.72      390.35769    
  39956000   39956          0.99889268    -0.2422906      7.727838       1.4983324      10.405592      9.2261704     -2.677754       322751.96      177.39052      34.648533      34.648533     -0.70435403    -0.077812158    0.055294373   -0.0090172969   0.0023491948   0.010413485    324953.66      357.84265    
  39960000   39960          0.99641304    -0.25935978     7.7254596      1.494613       10.406349      9.2200726     -2.6808896      324154.81      177.40235      34.631324      34.631324     -0.62197822    -0.083010101   -0.073091017    0.10065043     0.10104348     0.10008286     325000.04      325.32536    
  39964000   39964          1.0010422     -0.28899471     7.7273337      1.5015566      10.40514       9.2288903     -2.6778066      322185.91      177.41419      34.656565      34.656565     -0.76950278    -0.037921937   -0.05955941     0.039735183    0.023825395    0.018708401    325046.24      292.80514    
  39968000   39968          0.99841471    -0.14204152     7.7304281      1.4976154      10.410817      9.2280435     -2.6803889      322404.98      177.42602      34.634844      34.634844     -0.61641325     0.15840374     0.031884946   -0.026314554   -0.11653018     0.13264017     325092.18      260.28197    
  39972000   39972          0.99683995    -0.19638317     7.7234821      1.4952533      10.402459      9.2187354     -2.6789769      324530.67      177.43786      34.638044      34.638044     -0.4978999     -0.057831166   -0.033418444   -0.028840348    0.084594715    0.05146667     325139.63      227.75717    
  39976000   39976          0.99966439    -0.29697587     7.7268253      1.49949        10.407538      9.2263152     -2.6807126      322843.31      177.44969      34.631325      34.631325     -0.78845095    -0.057377152   -0.045099505   -0.05864766    -0.049396037    0.13788872     325186.75      195.22919    
  39980000   39980          1.0026927     -0.2135965      7.7250759      1.5040323      10.405394      9.2291082     -2.6803183      322236.94      177.46153      34.635143      34.635143     -0.55435873    -0.055916892   -0.030513863    0.068168999    0.017371259    0.11121684     325233.71      162.69821    
  39984000   39984          0.99908807    -0.25745757     7.725105       1.4986255      10.406917      9.2237304     -2.6818118      323476.7       177.47336      34.627265      34.627265     -0.70046815    -0.022321817   -0.049582745    0.010499672    0.06654132    -0.047237701    325280.57      130.16429    
  39988000   39988          0.99929877    -0.22194429     7.7244178      1.4989415      10.405866      9.2233593     -2.6814477      323585.15      177.4852       34.624521      34.624521     -0.55760244    -0.075854014   -0.032376425   -0.063615132    0.065577632    0.1147321      325327.53      97.627547    
  39992000   39992          1.0000036     -0.26774584     7.7271457      1.4999987      10.405435      9.2271445     -2.6782891      322754.94      177.49703      34.638503      34.638503     -0.86840818     0.13829627    -0.073125608   -0.051156858   -0.055517781    0.059924336    325374.25      65.087868    
  39996000   39996          1.0013369     -0.23946799     7.7257238      1.5019988      10.404119      9.2277226     -2.6783956      322648.47      177.50887      34.629091      34.629091     -0.82306005     0.072639385    0.032016706   -0.083320225    0.029982985    0.020114334    325420.97      32.545351    
  40000000   40000          0.99707882    -0.15149736     7.7247799      1.4956116      10.403963      9.2203915     -2.6791827      324330.35      177.5207       34.622208      34.622208     -0.64302214     0.082351938    0.10617813    -0.060808743    0.05554658     0.064693327    325467.71      0            
Loop time of 325468 on 18 procs for 40000000 steps with 225980 atoms

Performance: 10618.565 tau/day, 122.900 timesteps/s
94.9% CPU use with 18 MPI tasks x 1 OpenMP threads

MPI task timing breakdown:
Section |  min time  |  avg time  |  max time  |%varavg| %total
---------------------------------------------------------------
Pair    | 24183      | 26258      | 26866      | 341.4 |  8.07
Bond    | 1.1464e+05 | 1.2712e+05 | 1.3158e+05 | 945.9 | 39.06
Neigh   | 279.57     | 283.65     | 288.28     |  11.5 |  0.09
Comm    | 50504      | 54802      | 68447      |1561.6 | 16.84
Output  | 1782.9     | 1783       | 1783       |   0.1 |  0.55
Modify  | 1.0909e+05 | 1.0966e+05 | 1.1055e+05 | 169.1 | 33.69
Other   |            | 5555       |            |       |  1.71

Nlocal:        12554.4 ave       12795 max       12202 min
Histogram: 2 0 1 0 3 1 3 4 2 2
Nghost:        26660.7 ave       26994 max       26173 min
Histogram: 1 1 0 2 1 2 3 5 2 1
Neighs:              0 ave           0 max           0 min
Histogram: 18 0 0 0 0 0 0 0 0 0

Total # of neighbors = 0
Ave neighs/atom = 0
Ave special neighs/atom = 66.124259
Neighbor list builds = 211732
Dangerous builds = 0

# GENERATION RESTART
write_restart ./out.deform.restart
System init for write_restart ...
Generated 0 of 36 mixed pair_coeff terms from geometric mixing rule
write_data    ./out.deform.data pair ij
System init for write_data ...
Generated 0 of 36 mixed pair_coeff terms from geometric mixing rule
Total wall time: 90:24:34
