LAMMPS (15 Sep 2022)
OMP_NUM_THREADS environment is not set. Defaulting to 1 thread. (src/comm.cpp:98)
  using 1 OpenMP thread(s) per MPI task
package gpu 0 binsize 12.0
# LAMMPS Script for deform
# Generated 12/17/2022

# INIT PARAMS & READ CONF
include   "/work_bgfs/h/harshad/simulation_9/neat_polymer/config_4/system.init"
# UNITS
units		lj
dimension	3
atom_style	bond

# INPUT FILE
pair_style	lj/cut 2.5
bond_style	fene
read_data /work_bgfs/h/harshad/simulation_9/neat_polymer/config_4/quiescent/thermal_replicates/2.npt.data
Reading data file ...
  orthogonal box = (-24.247374 -24.247374 -24.247374) to (24.247374 24.247374 24.247374)
  2 by 3 by 3 MPI processor grid
  reading atoms ...
  102500 atoms
  reading velocities ...
  102500 velocities
  scanning bonds ...
  2 = max bonds/atom
  reading bonds ...
  104500 bonds
Finding 1-2 1-3 1-4 neighbors ...
  special bond factors lj:    0        0        0       
  special bond factors coul:  0        0        0       
     4 = max # of 1-2 neighbors
     4 = max # of 1-3 neighbors
     8 = max # of 1-4 neighbors
    12 = max # of special neighbors
  special bonds CPU = 0.004 seconds
  read_data CPU = 0.871 seconds
include   "/work_bgfs/h/harshad/simulation_9/neat_polymer/config_4/system.settings"
# ATOM TYPE
mass  1  1.0 #backbone
mass  2  1.0 #endmer
mass  3  1.0 #crosslinker
mass  4  1.0 #outer shell
mass  5  1.0 #inner shell 2
mass  6  1.0 #inner-most shell
mass  7  1.0 #center bead
mass  8  1.0 #endmer post crosslinking
mass  9  1.0 #crosslinker post crosslinking

# BOND
bond_coeff * 30.0 1.50 1.0 1.0
special_bonds lj 0.0 1.0 1.0
Finding 1-2 1-3 1-4 neighbors ...
  special bond factors lj:    0        1        1       
  special bond factors coul:  0        0        0       
     4 = max # of 1-2 neighbors
     4 = max # of 1-3 neighbors
     8 = max # of 1-4 neighbors
    12 = max # of special neighbors
  special bonds CPU = 0.003 seconds

# PAIR
pair_coeff  1*9 1*9 1.0 1.0 2.5

pair_modify  shift yes
neigh_modify delay 1 check yes

# MAKE GROUPS
group polymer type 1 2 3 8 9
102500 atoms in group polymer
#group ins     type 1
#group strand  type 1 2 8
#group ends    type 2 8
#group xlinks  type 3 9
#group filler  type 4 5 6 7

# INPUTS FROM SBATCH
variable Temp          equal 1.0
variable gamma_total   equal 2.0
variable gamma_rate    equal 0.00005
variable dt            equal 0.001
variable Nfreq         equal 4000
variable Nrepeat_2     equal 100
variable Nevery_1      equal 1
variable Nrepeat_1     equal 1

variable Run           equal ${gamma_total}/${gamma_rate}/${dt}
variable Run           equal 2/${gamma_rate}/${dt}
variable Run           equal 2/5e-05/${dt}
variable Run           equal 2/5e-05/0.001

# RUN OPTIONS
run_style verlet
timestep  ${dt}
timestep  0.001

# RESTART
restart  ${Nfreq} cycle.1.restart cycle.2.restart
restart  4000 cycle.1.restart cycle.2.restart

## SAVE RESTARTS EVERY 10% EXTENSION
#variable RestFreq      equal 0.1/${gamma_rate}/${dt}
#restart  ${RestFreq} deform.*.restart
#
# COMPUTE ke/atom, pe/atom, pxx/atom, position and time-avg
compute     ke_atm          all     ke/atom
compute     p_atm           all     stress/atom NULL
compute     pe_atm          all     pe/atom
compute     ebond_atm       all     pe/atom bond
compute     posit_atm       all     property/atom x y z
fix         avg_ke_atm_1    all     ave/atom ${Nevery_1} ${Nrepeat_1} ${Nfreq} c_ke_atm
fix         avg_ke_atm_1    all     ave/atom 1 ${Nrepeat_1} ${Nfreq} c_ke_atm
fix         avg_ke_atm_1    all     ave/atom 1 1 ${Nfreq} c_ke_atm
fix         avg_ke_atm_1    all     ave/atom 1 1 4000 c_ke_atm
fix         avg_pxx_atm_1   all     ave/atom ${Nevery_1} ${Nrepeat_1} ${Nfreq} c_p_atm[*]
fix         avg_pxx_atm_1   all     ave/atom 1 ${Nrepeat_1} ${Nfreq} c_p_atm[*]
fix         avg_pxx_atm_1   all     ave/atom 1 1 ${Nfreq} c_p_atm[*]
fix         avg_pxx_atm_1   all     ave/atom 1 1 4000 c_p_atm[*]
fix         avg_pe_atm_1    all     ave/atom ${Nevery_1} ${Nrepeat_1} ${Nfreq} c_pe_atm
fix         avg_pe_atm_1    all     ave/atom 1 ${Nrepeat_1} ${Nfreq} c_pe_atm
fix         avg_pe_atm_1    all     ave/atom 1 1 ${Nfreq} c_pe_atm
fix         avg_pe_atm_1    all     ave/atom 1 1 4000 c_pe_atm
#fix         avg_posit_atm_1 all     ave/atom ${Nevery_1} ${Nrepeat_1} ${Nfreq} c_posit_atm[1] c_posit_atm[2] c_posit_atm[3]
dump        dump_1 all custom ${Nfreq} ${out_dir}traj.${Nevery_1}_${Nrepeat_1}_${Nfreq}.xyz mol type x y z f_avg_ke_atm_1 f_avg_pe_atm_1 f_avg_pxx_atm_1[*]
dump        dump_1 all custom 4000 ${out_dir}traj.${Nevery_1}_${Nrepeat_1}_${Nfreq}.xyz mol type x y z f_avg_ke_atm_1 f_avg_pe_atm_1 f_avg_pxx_atm_1[*]
dump        dump_1 all custom 4000 /shares_bgfs/dssimmons_data/harshad/deform/neat_polymer/config_4/2_deform/work_bgfs--h--harshad--simulation_9--neat_polymer--config_4--2_deform--traj.${Nevery_1}_${Nrepeat_1}_${Nfreq}.xyz mol type x y z f_avg_ke_atm_1 f_avg_pe_atm_1 f_avg_pxx_atm_1[*]
dump        dump_1 all custom 4000 /shares_bgfs/dssimmons_data/harshad/deform/neat_polymer/config_4/2_deform/work_bgfs--h--harshad--simulation_9--neat_polymer--config_4--2_deform--traj.1_${Nrepeat_1}_${Nfreq}.xyz mol type x y z f_avg_ke_atm_1 f_avg_pe_atm_1 f_avg_pxx_atm_1[*]
dump        dump_1 all custom 4000 /shares_bgfs/dssimmons_data/harshad/deform/neat_polymer/config_4/2_deform/work_bgfs--h--harshad--simulation_9--neat_polymer--config_4--2_deform--traj.1_1_${Nfreq}.xyz mol type x y z f_avg_ke_atm_1 f_avg_pe_atm_1 f_avg_pxx_atm_1[*]
dump        dump_1 all custom 4000 /shares_bgfs/dssimmons_data/harshad/deform/neat_polymer/config_4/2_deform/work_bgfs--h--harshad--simulation_9--neat_polymer--config_4--2_deform--traj.1_1_4000.xyz mol type x y z f_avg_ke_atm_1 f_avg_pe_atm_1 f_avg_pxx_atm_1[*]
dump_modify dump_1 append yes sort id

# COMPUTE a separate pe and ke for each group, AVG & SAVE
compute   pe_polymer    all reduce  sum c_pe_atm
compute   ke_polymer    all reduce  sum c_ke_atm
compute   ebond_polymer all reduce  sum c_ebond_atm
compute   pxx_polymer   all reduce  sum c_p_atm[1] c_p_atm[2] c_p_atm[3]
compute   pxy_polymer   all reduce  sum c_p_atm[4] c_p_atm[5] c_p_atm[6]
fix 		  avgEnergy     all     ave/time ${Nevery_1} ${Nrepeat_2} ${Nfreq} c_pe_polymer c_ke_polymer c_ebond_polymer c_pxy_polymer[1] c_pxy_polymer[2] c_pxy_polymer[3] file energy.avg.csv
fix 		  avgEnergy     all     ave/time 1 ${Nrepeat_2} ${Nfreq} c_pe_polymer c_ke_polymer c_ebond_polymer c_pxy_polymer[1] c_pxy_polymer[2] c_pxy_polymer[3] file energy.avg.csv
fix 		  avgEnergy     all     ave/time 1 100 ${Nfreq} c_pe_polymer c_ke_polymer c_ebond_polymer c_pxy_polymer[1] c_pxy_polymer[2] c_pxy_polymer[3] file energy.avg.csv
fix 		  avgEnergy     all     ave/time 1 100 4000 c_pe_polymer c_ke_polymer c_ebond_polymer c_pxy_polymer[1] c_pxy_polymer[2] c_pxy_polymer[3] file energy.avg.csv
fix       avgPxx_all    all     ave/time ${Nevery_1} ${Nfreq} ${Nfreq}     c_pxx_polymer[1] c_pxx_polymer[2] c_pxx_polymer[3]                                           file pxx.all.avg.csv
fix       avgPxx_all    all     ave/time 1 ${Nfreq} ${Nfreq}     c_pxx_polymer[1] c_pxx_polymer[2] c_pxx_polymer[3]                                           file pxx.all.avg.csv
fix       avgPxx_all    all     ave/time 1 4000 ${Nfreq}     c_pxx_polymer[1] c_pxx_polymer[2] c_pxx_polymer[3]                                           file pxx.all.avg.csv
fix       avgPxx_all    all     ave/time 1 4000 4000     c_pxx_polymer[1] c_pxx_polymer[2] c_pxx_polymer[3]                                           file pxx.all.avg.csv

# TIME-AVG Ly
variable Ly equal ly
fix       avgLy         all     ave/time ${Nevery_1} ${Nfreq} ${Nfreq}     v_Ly  file Ly.avg.csv
fix       avgLy         all     ave/time 1 ${Nfreq} ${Nfreq}     v_Ly  file Ly.avg.csv
fix       avgLy         all     ave/time 1 4000 ${Nfreq}     v_Ly  file Ly.avg.csv
fix       avgLy         all     ave/time 1 4000 4000     v_Ly  file Ly.avg.csv

# SIMULATION FIXES
fix  npt        all npt temp ${Temp} ${Temp} 2.0 y 0 0 5 z 0 0 5 couple yz
fix  npt        all npt temp 1 ${Temp} 2.0 y 0 0 5 z 0 0 5 couple yz
fix  npt        all npt temp 1 1 2.0 y 0 0 5 z 0 0 5 couple yz
fix  mom        all momentum 10000 linear 1 1 1
fix  deform     all deform 1 x erate ${gamma_rate} remap x units box
fix  deform     all deform 1 x erate 5e-05 remap x units box

# THERMO
variable  thermo_frq equal ${Nfreq}
variable  thermo_frq equal 4000
thermo    ${thermo_frq}
thermo    4000
thermo_style  custom step time temp press pe ke ebond etotal epair ecouple lx ly lz pxx pyy pzz pxy pxz pyz cpu cpuremain

# deform
run ${Run}
run 40000000

CITE-CITE-CITE-CITE-CITE-CITE-CITE-CITE-CITE-CITE-CITE-CITE-CITE

Your simulation uses code contributions which should be cited:

- GPU package (short-range, long-range and three-body potentials): doi:10.1016/j.cpc.2010.12.021, doi:10.1016/j.cpc.2011.10.012, doi:10.1016/j.cpc.2013.08.002, doi:10.1016/j.commatsci.2014.10.068, doi:10.1016/j.cpc.2016.10.020, doi:10.3233/APC200086

@Article{Brown11,
 author = {W. M. Brown and P. Wang and S. J. Plimpton and A. N. Tharrington},
 title = {Implementing Molecular Dynamics on Hybrid High Performance Computers---Short Range Forces},
 journal = {Comput.\ Phys.\ Commun.},
 year =    2011,
 volume =  182,
 pages =   {898--911},
 doi =     {10.1016/j.cpc.2010.12.021}
}

@Article{Brown12,
 author = {W. M. Brown and A. Kohlmeyer and S. J. Plimpton and A. N. Tharrington},
 title = {Implementing Molecular Dynamics on Hybrid High Performance Computers - Particle-Particle Particle-Mesh},
 journal = {Comput.\ Phys.\ Commun.},
 year =    2012,
 volume =  183,
 doi =     {10.1016/j.cpc.2011.10.012},
 pages =   {449--459}
}

@Article{Brown13,
 author = {W. M. Brown and Y. Masako},
 title = {Implementing Molecular Dynamics on Hybrid High Performance Computers---Three-Body Potentials},
 journal = {Comput.\ Phys.\ Commun.},
 year =    2013,
 volume =  184,
 pages =   {2785--2793},
 doi =     {10.1016/j.cpc.2013.08.002},
}

@Article{Trung15,
 author = {T. D. Nguyen and S. J. Plimpton},
 title = {Accelerating Dissipative Particle Dynamics Simulations for Soft Matter Systems},
 journal = {Comput.\ Mater.\ Sci.},
 year =    2015,
 doi =     {10.1016/j.commatsci.2014.10.068},
 volume =  100,
 pages =   {173--180}
}

@Article{Trung17,
 author = {T. D. Nguyen},
 title = {{GPU}-Accelerated {T}ersoff Potentials for Massively Parallel
    Molecular Dynamics Simulations},
 journal = {Comput.\ Phys.\ Commun.},
 year =    2017,
 doi =     {10.1016/j.cpc.2016.10.020},
 volume =  212,
 pages =   {113--122}
}

@inproceedings{Nikolskiy19,
 author = {V. Nikolskiy and V. Stegailov},
 title = {{GPU} Acceleration of Four-Site Water Models in {LAMMPS}},
 booktitle = {Proceedings of the International Conference on Parallel
    Computing (ParCo 2019), Prague, Czech Republic},
 doi =     {10.3233/APC200086},
 year =    2019
}

CITE-CITE-CITE-CITE-CITE-CITE-CITE-CITE-CITE-CITE-CITE-CITE-CITE

Generated 0 of 36 mixed pair_coeff terms from geometric mixing rule
WARNING: Inconsistent image flags (src/domain.cpp:819)
Per MPI rank memory allocation (min/avg/max) = 11.63 | 11.63 | 11.65 Mbytes
   Step          Time           Temp          Press          PotEng         KinEng         E_bond         TotEng         E_pair        Ecouple           Lx             Ly             Lz            Pxx            Pyy            Pzz            Pxy            Pxz            Pyz            CPU          CPULeft    
         0   0              0.9998014      0.0013565099   16.635922      1.4996875      21.110241      18.13561      -4.4743183      0              48.494749      48.494749      48.494749      0.036542614   -0.0012391029  -0.031233981    0.020199753   -0.02844034     0.015948245    0              0            
      4000   4              1.0007435     -0.0042087468   16.63652       1.5011006      21.107735      18.137621     -4.4712149     -185.48515      48.504448      48.520862      48.520862     -0.016588201   -0.018809457    0.022771418   -0.013170166   -0.021298748   -0.010596596    7.2010404      72003.213    
      8000   8              1.0016682     -0.060087376    16.639505      1.5024876      21.105154      18.141993     -4.4656489     -613.41444      48.514147      48.555491      48.555491     -0.048877793   -0.026205633   -0.1051787     -0.040580353   -0.0184358     -0.013618871    14.348728      71729.299    
     12000   12             0.99498833    -0.021509068    16.637544      1.4924679      21.110611      18.130012     -4.4730673      635.06453      48.523845      48.523519      48.523519     -0.01012325    -0.048731198   -0.0056727543   0.022084791    0.0095559968   0.025168454    21.423602      71390.586    
     16000   16             0.99939558     5.4543071e-05  16.635168      1.4990787      21.104817      18.134246     -4.4696494      221.22705      48.533544      48.499945      48.499945      0.007359374    0.048825634   -0.056021379    0.019445501   -0.018593117    0.024824855    28.46433       71132.364    
     20000   20             1.0046793      0.055479003    16.639477      1.5070042      21.109114      18.146481     -4.4696372     -1012.2581      48.543243      48.499756      48.499756      0.078379581    0.088783448   -0.00072602141  0.055149005    0.01359305     0.025132181    35.464449      70893.435    
     24000   24             1.0018174     -0.037003047    16.638308      1.5027115      21.106846      18.14102      -4.4685381     -431.78212      48.552942      48.515205      48.515205     -0.054791296    0.0090970986  -0.065314943    0.0016056171   0.025740382   -0.031148754    42.570316      70907.959    
     28000   28             0.99696955     0.00049451542  16.633347      1.4954397      21.106176      18.128787     -4.4728288      842.46808      48.562641      48.489668      48.489668     -0.0083217613   0.016051286   -0.0062459784   0.031600613    0.002930068   -0.024650574    49.60832       70819.422    
     32000   32             1.0006547     -0.065489669    16.63668       1.5009674      21.107069      18.137648     -4.4703886     -45.677193      48.57234       48.497794      48.497794     -0.076969151   -0.023103594   -0.096396261   -0.030476387    0.016136947   -0.02641057     56.633869      70735.704    
     36000   36             0.99971408    -0.028552142    16.64404       1.4995565      21.108235      18.143596     -4.4641954     -634.72198      48.582039      48.509823      48.509823      0.015943832   -0.020027331   -0.081572927    0.0057057746   0.030655612    0.021749075    63.56535       70564.603    
     40000   40             1.0024383     -0.050185713    16.634687      1.5036427      21.101719      18.138329     -4.4670328     -74.627303      48.591738      48.495123      48.495123     -0.04522518    -0.050439959   -0.054891999   -0.0053839174   0.0095026322   0.024707926    70.633573      70562.941    
     44000   44             0.99684179    -0.010737735    16.637221      1.4952481      21.104438      18.132469     -4.4672173      546.90839      48.601437      48.490935      48.490935     -0.033226026   -0.017635982    0.018648804   -0.004051405    0.042720093   -0.029733865    77.787658      70638.266    
     48000   48             0.99652812    -0.0062664706   16.63494       1.4947776      21.107271      18.129718     -4.4723307      849.39074      48.611136      48.475047      48.475047      0.027049435   -0.070574999    0.024726152   -0.041320345    0.020997222   -0.019237265    84.804057      70585.244    
     52000   52             1.0023739      0.0039723878   16.632897      1.5035462      21.106511      18.136443     -4.4736145      180.47823      48.620835      48.464232      48.464232     -0.0026215263  -0.028859305    0.043397994   -0.027433537    0.0082953526   0.014928256    91.87439       70580.734    
     56000   56             1.0017686     -0.015728504    16.643722      1.5026383      21.111217      18.14636      -4.4674952     -815.23108      48.630534      48.473861      48.473861      0.0049811762  -0.032658515   -0.019508173    0.011679704    0.008888515   -0.025708039    99.024942      70633.077    
     60000   60             0.99826964    -0.049829416    16.637548      1.4973899      21.105914      18.134938     -4.468366       376.21511      48.640233      48.472883      48.472883      0.018372151   -0.0644276     -0.1034328     -0.040679895    0.031656772   -0.024693791    106.13857      70652.911    
     64000   64             0.99726207    -0.055006729    16.63285       1.4958785      21.104386      18.128728     -4.4715363      1032.8556      48.649932      48.462258      48.462258     -0.10053906    -0.061092954   -0.0033881723  -0.023888507   -0.0079532589   0.014336211    113.20762      70641.553    
     68000   68             1.0036627     -0.067696663    16.635808      1.5054794      21.102891      18.141287     -4.4670827     -233.72256      48.659631      48.481374      48.481374     -0.10232007    -0.031993529   -0.06877639    -0.0494018      0.0017966637   0.027818949    120.30291      70646.116    
     72000   72             1.0045046     -0.013914771    16.635157      1.5067423      21.104946      18.1419       -4.4697888     -275.82401      48.66933       48.461659      48.461659     -0.005634381   -0.0097163831  -0.026393548   -0.022494385    0.039721755    0.032468456    127.29585      70592.621    
     76000   76             0.99946092     0.049586363    16.635968      1.4991768      21.102315      18.135145     -4.4663463      436.95115      48.679029      48.446368      48.446368      0.096836263    0.037821828    0.014100999   -0.01885877    -0.022544183    0.0034414634   134.38477      70594.444    
     80000   80             0.99429065    -0.0078053211   16.629957      1.4914214      21.103961      18.121379     -4.4740039      1868.6178      48.688728      48.430473      48.430473      0.025215085   -0.051024467    0.0023934189  -0.03012794    -0.019385089   -0.022240887    141.72828      70722.414    
     84000   84             1.0001812      0.063407973    16.633552      1.5002572      21.107643      18.133809     -4.4740915      615.4236       48.698427      48.404109      48.404109      0.019079349    0.034214797    0.13692977     0.026630749   -0.014158139    0.041656162    148.99559      70801.285    
     88000   88             1.000592       0.0054340621   16.633568      1.5008734      21.105085      18.134441     -4.4715164      571.07388      48.708126      48.41028       48.41028      -0.03028087    -0.004388383    0.050971439    0.0031416724   0.021924247   -0.0061198467   156.07183      70785.671    
     92000   92             1.0009796      0.00082459783  16.642687      1.5014548      21.107285      18.144142     -4.464598      -402.49095      48.717824      48.429732      48.429732      0.0024305868   0.0025604863  -0.0025172796   0.0034581357   0.019531429   -0.03117981     163.14887      70771.142    
     96000   96             1.0024656      0.037482474    16.639469      1.5036838      21.105891      18.143153     -4.4664217     -280.23494      48.727523      48.397219      48.397219      0.027160744    0.036332371    0.048954308    0.085673587    0.0039293073   0.051216221    170.31511      70794.315    
    100000   100            1.0034624     -0.0017929386   16.626035      1.5051789      21.105339      18.131214     -4.4793036      963.73499      48.737222      48.377781      48.377781      0.02816247    -0.075751374    0.042210088    0.038923459   -0.0056577468   0.0242001      177.45039      70802.708    
    104000   104            1.0009572     -0.013922928    16.637907      1.5014212      21.107419      18.139329     -4.4695117      152.90544      48.746921      48.383096      48.383096     -0.013996339   -0.033740467    0.0059680223   0.04379998     0.016996594   -0.0035906987   184.55828      70799.397    
    108000   108            1.0017574     -0.040570914    16.639987      1.5026214      21.105572      18.142608     -4.4655845     -162.75413      48.75662       48.418967      48.418967     -0.072565277   -0.029197193   -0.019950271   -0.059886153   -0.017674879   -0.057770689    191.75576      70828.895    
    112000   112            0.99686658     0.014353763    16.631495      1.4952853      21.106551      18.12678      -4.475056       1480.0527      48.766319      48.393235      48.393235      0.071824854   -0.023119173   -0.0056443932   0.021440811    0.0046848359  -0.0067117979   198.96469      70859.854    
    116000   116            1.0017637     -0.002374296    16.634545      1.5026309      21.103996      18.137176     -4.4694509      435.05017      48.776018      48.381448      48.381448      0.02023183     0.01406254    -0.041417258   -0.017455589   -0.010195579   -0.011175238    206.10448      70864.408    
    120000   120            0.99955464    -0.033656011    16.639387      1.4993173      21.105059      18.138704     -4.4656717      299.29624      48.785717      48.415978      48.415978     -0.018290642   -0.072550326   -0.010127064   -0.0085517398   0.012809828    0.024131632    213.35118      70903.709    
    124000   124            0.99881277     0.030095106    16.650694      1.4982045      21.11258       18.148899     -4.4618855     -724.93331      48.795416      48.403096      48.403096      0.063479118    0.0038389872   0.022967212   -0.01663069     0.001264752    0.010830419    220.57076      70931.288    
    128000   128            1.0016277      0.096529736    16.63393       1.5024269      21.105004      18.136357     -4.471074       580.66666      48.805115      48.36549       48.36549       0.063554344    0.12897749     0.097057375   -0.0096367019   0.0023489544  -0.00065024449  227.78422      70954.784    
    132000   132            1.0018042      0.033438081    16.634568      1.5026917      21.10692       18.13726      -4.4723523      508.62989      48.814814      48.342817      48.342817      0.033492996    0.059142907    0.0076783403   0.015920075    0.0046205334   0.004937724    234.90774      70949.256    
    136000   136            1.0056294      0.028521815    16.63838       1.5084293      21.10812       18.14681      -4.4697394     -449.34497      48.824513      48.366434      48.366434      0.030560779    0.066554213   -0.011549546    0.0002512404   0.024096588    0.00061736035  241.96273      70923.545    
    140000   140            0.99969108    -0.011395578    16.638226      1.499522       21.107606      18.137748     -4.4693805      499.89678      48.834212      48.341661      48.341661     -0.0023181494   0.027369188   -0.059237771   -0.056232757   -0.016005611    0.038118192    248.98466      70889.49     
    144000   144            0.99927893     0.0027152678   16.633841      1.4989038      21.105183      18.132744     -4.4713426      1032.9276      48.843911      48.354256      48.354256      0.032675716   -0.011283398   -0.013246515   -0.014782331    0.015540975   -0.0065798445   256.10371      70883.817    
    148000   148            0.99874472     0.023395307    16.64418       1.4981025      21.110159      18.142282     -4.4659795      76.096454      48.85361       48.349902      48.349902     -0.018657271    0.053873791    0.034969399   -0.0015071709  -0.047649077    0.005417926    263.18151      70866.956    
    152000   152            0.99814353     0.094854821    16.636196      1.4972007      21.107231      18.133397     -4.4710351      1007.0365      48.863309      48.323323      48.323323      0.12403212     0.060295955    0.10023639     0.0067795976  -0.010522279    0.0077886224   270.22818      70842.451    
    156000   156            1.0018476      0.067744769    16.628077      1.5027568      21.106752      18.130833     -4.4786758      1290.1117      48.873008      48.2942        48.2942        0.10830854     0.024497108    0.070428664   -0.010296054    0.024217172   -0.0040953388   277.33303      70833.702    
    160000   160            1.0018661      0.0088171654   16.639402      1.5027845      21.106467      18.142187     -4.4670647      146.84873      48.882707      48.330789      48.330789     -0.029725423    0.024245687    0.031931232    0.0017360468   0.02761492    -0.028256263    284.61643      70869.49     
    164000   164            1.0025115      0.036922376    16.632724      1.5037526      21.105072      18.136476     -4.4723483      752.48236      48.892406      48.327287      48.327287      0.063083754    0.027004335    0.020679041    0.0083771104  -0.020301775   -0.019487625    291.77584      70873.064    
    168000   168            0.99975265     0.021980316    16.634057      1.4996143      21.105179      18.133672     -4.471122       1060.4913      48.902105      48.332273      48.332273     -0.026371878    0.044312057    0.048000768    0.015934322   -0.041962255   -0.030210434    298.81506      70847.627    
    172000   172            1.0005138     -0.025767338    16.643164      1.5007561      21.105163      18.14392      -4.461999       30.930824      48.911803      48.360968      48.360968     -0.013213627   -0.030376991   -0.033711397    0.066619575   -0.010413335    0.00046387641  305.90435      70834.641    
    176000   176            0.99755837    -0.019915316    16.635702      1.4963229      21.102897      18.132025     -4.4671954      1270.5496      48.921502      48.331455      48.331455      0.039488568   -0.056154125   -0.043080392   -0.011998972    0.028147793   -0.0049474198   313.01783      70827.399    
    180000   180            0.99675675    -0.032279636    16.636732      1.4951205      21.103736      18.131853     -4.4670038      1308.4749      48.931201      48.323138      48.323138      0.0075297923  -0.02595925    -0.078409449    0.0068011153   0.0051740578  -0.012229701    320.19519      70834.292    
    184000   184            1.0019432     -0.042531568    16.6387        1.5029001      21.108057      18.1416       -4.4693569      329.76947      48.9409        48.313397      48.313397     -0.057154764   -0.02653044    -0.043909501   -0.016045489    0.019721575    0.023319571    327.35238      70836.209    
    188000   188            0.99851664     0.022734742    16.627098      1.4977603      21.104662      18.124859     -4.4775642      2065.9484      48.950599      48.261013      48.261013      0.056356551    0.013445931   -0.0015982545  -0.0035677619   0.0091246094  -0.0080767673   334.47608      70830.647    
    192000   192            0.99888453    -0.0064469494   16.633706      1.4983122      21.107451      18.132019     -4.4737447      1353.1609      48.960298      48.289341      48.289341      0.025819554    0.0073187009  -0.052479103    0.0060645639   0.072435295   -0.021606944    341.58909      70822.806    
    196000   196            1.0020269      0.11646068     16.634348      1.5030257      21.111995      18.137374     -4.4776471      824.5594       48.969997      48.254633      48.254633      0.14174211     0.15345348     0.054186451   -0.044945681   -0.049137003    0.040895841    348.7474       70824.192    
    200000   200            0.99867527     0.043334082    16.629133      1.4979983      21.106354      18.127131     -4.4772212      1894.587       48.979696      48.27486       48.27486       0.11635187    -0.01989046     0.033540838    0.0031555556   0.0012394869  -0.015156918    355.98102      70840.223    
    204000   204            1.0008808      0.05839296     16.641728      1.5013065      21.10869       18.143035     -4.4669621      285.08536      48.989395      48.285063      48.285063      0.062989192   -0.0075172824   0.11970697     0.031260169   -0.039479803   -0.029472816    363.17896      70848.381    
    208000   208            0.99635415    -0.027440926    16.642695      1.4945166      21.106309      18.137211     -4.4636143      902.79549      48.999094      48.299153      48.299153     -0.017654892    0.0079236165  -0.072591504   -0.0038753057  -0.0044755069   0.021301608    370.33878      70848.657    
    212000   212            0.99647049    -0.0029373178   16.631137      1.4946912      21.103821      18.125828     -4.4726847      2089.4899      49.008793      48.289056      48.289056      0.010955449   -0.058497142    0.038729739    0.014314401    0.02690887    -0.03589955     377.49793      70848.526    
    216000   216            1.0030587      0.028063455    16.633569      1.5045734      21.10533       18.138143     -4.4717607      847.1579       49.018492      48.255353      48.255353      0.026252052    0.0073379163   0.050600396    0.027866082   -0.0032566093   0.043976898    384.60817      70839.127    
    220000   220            1.0031617      0.054779211    16.635475      1.5047278      21.104038      18.140203     -4.4685627      656.59506      49.028191      48.26109       48.26109       0.063251098    0.023902882    0.077183654   -0.01734128    -0.0030882476  -0.028678468    391.83652      70851.168    
    224000   224            0.99716173    -0.011981371    16.633065      1.495728       21.105846      18.128793     -4.4727804      1846.1238      49.03789       48.261862      48.261862      0.0082624376   0.031553903   -0.075760453    0.0032047203   0.045275418    0.0064158239   398.92921      70838.429    
    228000   228            0.99915392     0.030965845    16.639609      1.4987163      21.102923      18.138326     -4.4633139      888.98133      49.047589      48.26931       48.26931       0.051500106    0.026115858    0.01528157    -0.031960312   -0.03266048    -0.017982081    406.01963      70825.495    
    232000   232            1.002142      -0.026090766    16.641263      1.5031983      21.109237      18.144461     -4.4679737      280.35849      49.057288      48.265198      48.265198      0.0028076073  -0.076951906   -0.0041279999   0.0033220389  -0.0078304515  -0.0075466392   413.20972      70829.846    
    236000   236            0.99879945    -0.0085044461   16.63732       1.4981846      21.10649       18.135504     -4.4691703      1219.0205      49.066987      48.239888      48.239888      0.026016947   -0.053921306    0.002391021   -0.022322807    0.017326179   -0.011918368    420.46787      70845.274    
    240000   240            0.99340772     0.015513028    16.634698      1.490097       21.10522       18.124795     -4.4705225      2336.6126      49.076686      48.236914      48.236914     -0.016651757    0.05174353     0.011447312    0.059753839    0.0030502556  -0.033789874    427.44624      70813.593    
    244000   244            0.99931616    -0.089555373    16.637601      1.4989596      21.108539      18.13656      -4.4709384      1150.8045      49.086385      48.242025      48.242025     -0.087955845   -0.12894321    -0.051767061    0.038943343    0.019602855    0.0028085818   434.53903      70801.367    
    248000   248            0.99665207    -0.061317566    16.641204      1.4949635      21.108038      18.136167     -4.4668344      1211.382       49.096084      48.246358      48.246358     -0.052721416   -0.067745415   -0.063485866   -0.004882422   -0.04956564    -0.054503254    441.70271      70800.67     
    252000   252            0.99801579    -0.03760498     16.632865      1.4970091      21.104529      18.129874     -4.4716641      1876.4725      49.105782      48.23342       48.23342      -0.017690438   -0.053615771   -0.04150873    -0.05178078     0.005904844    0.0052045594   448.90289      70805.524    
    256000   256            1.0015497     -0.064155923    16.64179       1.5023099      21.108488      18.1441       -4.4666983      438.25465      49.115481      48.246529      48.246529     -0.063777951   -0.12185538    -0.0068344349  -0.021505134    0.00047485197 -0.017456583    455.98744      70792.05     
    260000   260            0.99778711    -0.016847155    16.641694      1.4966661      21.107306      18.13836      -4.4656119      1047.1832      49.12518       48.241587      48.241587     -0.065042637   -0.015734566    0.030235737    0.044030331    0.018739363   -0.014833657    463.08943      70781.439    
    264000   264            0.99609512    -0.010707808    16.637606      1.4941281      21.107278      18.131734     -4.4696714      1746.1451      49.134879      48.226293      48.226293      0.0093132345   0.011490263   -0.052926922   -0.042779449    0.015557236    0.0016052124   470.19061      70770.811    
    268000   268            1.001194       0.0084109165   16.629788      1.5017763      21.10296       18.131564     -4.473172       1783.7335      49.144578      48.204177      48.204177      0.047446193    0.0037922639  -0.026005707    0.0063384792  -0.050355806    0.0034450738   477.36727      70771.479    
    272000   272            0.99661501    -0.026503843    16.629052      1.4949079      21.102774      18.12396      -4.4737219      2583.5556      49.154277      48.199187      48.199187      0.016249669   -0.053384826   -0.042376372   -0.013886244   -0.010256634    0.02164889     484.4473       70757.803    
    276000   276            1.0024233      0.064933185    16.634538      1.5036203      21.105959      18.138159     -4.4714202      1148.5191      49.163976      48.185609      48.185609      0.049838433    0.065526784    0.079434337   -0.032264071    0.023416138    0.014354758    491.60466      70755.448    
    280000   280            1.0047421      0.0022206374   16.631248      1.5070984      21.108522      18.138347     -4.477274       1149.5044      49.173675      48.163688      48.163688      0.0018835819   0.032897652   -0.028119321    0.0037814569   0.025057145    0.033454824    498.68783      70742.431    
    284000   284            0.99955474    -0.014908579    16.630197      1.4993175      21.104595      18.129514     -4.4743981      2075.2395      49.183374      48.168487      48.168487     -0.0051611588   0.011686558   -0.051251135    0.021598642    0.016598993   -0.0099441441   505.81133      70735.221    
    288000   288            1.002297       0.04163821     16.632931      1.5034309      21.109636      18.136362     -4.4767055      1394.0652      49.193073      48.16295       48.16295       0.059655251    0.04369628     0.0215631      0.0007533131   0.073366237    0.012683573    512.86665      70718.612    
    292000   292            1.0046219     -0.029990527    16.628634      1.5069181      21.104788      18.135552     -4.4761532      1496.9693      49.202772      48.15228       48.15228      -0.014366662   -0.048482618   -0.027122301   -0.023127613    0.022260589   -0.022952438    519.85379      70692.994    
    296000   296            1.0030003      0.028386525    16.624179      1.5044858      21.103204      18.128665     -4.4790244      2222.9927      49.212471      48.131565      48.131565      0.061276121   -0.012184561    0.036068014   -0.043218164    0.00047028078 -0.022712463    526.96156      70684.061    
    300000   300            1.0040442      0.05987525     16.635588      1.5060516      21.10738       18.14164      -4.4717914      913.75711      49.22217       48.149975      48.149975      0.042150097    0.090659748    0.046815904    0.017820261    0.024597048   -0.014872064    534.11435      70681.132    
    304000   304            1.0000778      0.040762018    16.634075      1.500102       21.106667      18.134177     -4.4725923      1699.0529      49.231869      48.161682      48.161682      0.033954962    0.09748835    -0.0091572583  -0.0032271376  -0.0087645787  -0.0039593114   541.22264      70672.283    
    308000   308            0.99714073    -0.018961553    16.636851      1.4956965      21.104325      18.132548     -4.4674737      1886.9008      49.241568      48.166877      48.166877     -0.026960438   -0.030191362    0.00026714106  0.0043747183  -0.0026080619  -0.024535222    548.53452      70689.715    
    312000   312            0.99766966    -0.035291427    16.636673      1.4964899      21.106018      18.133163     -4.469345       1844.2236      49.251267      48.17016       48.17016      -0.073754346   -0.044897415    0.012777478    0.0035874381   0.019101506    0.0054648574   555.54572      70668.265    
    316000   316            0.99952133     0.031908999    16.645046      1.4992674      21.109454      18.144313     -4.4644088      721.82561      49.260966      48.152847      48.152847      0.038697544    0.0066972384   0.050332215   -0.0067988302  -0.020430157    0.0029434995   562.42228      70630.272    
    320000   320            1.0063975      0.0039525303   16.641064      1.5095815      21.106717      18.150646     -4.4656533      93.104102      49.270665      48.158057      48.158057     -0.037085105    0.0068019098   0.042140786   -0.011537002    0.011499353   -0.00011868284  569.4385       70610.374    
    324000   324            1.0010686      0.021762563    16.633377      1.5015883      21.108844      18.134965     -4.4754673      1720.3525      49.280364      48.11559       48.11559       0.028520215    0.0033509141   0.033416561    0.040258335   -0.042588068    0.0065815242   576.50977      70597.536    
    328000   328            0.99934451     0.0003101941   16.633326      1.4990021      21.108193      18.132328     -4.4748671      2010.8713      49.290063      48.101084      48.101084      0.00071459599 -0.0086353237   0.00885131     0.01026101    -0.028317273    0.089600458    583.50946      70576.181    
    332000   332            0.99693026     0.016491076    16.63126       1.4953808      21.106799      18.126641     -4.4755395      2613.8259      49.299761      48.106153      48.106153      0.015129708    0.076719543   -0.042376022    0.00069151921 -0.038997718    0.0036755481   590.58349      70564.054    
    336000   336            1.0022138      0.037781356    16.633249      1.503306       21.107749      18.136555     -4.4744999      1618.284       49.30946       48.087387      48.087387      0.071715401    0.015264208    0.026364458    0.033569117    0.042563204   -0.0069857134   597.64215      70550.233    
    340000   340            1.004374      -0.035185495    16.631861      1.5065463      21.107977      18.138407     -4.4761165      1448.4174      49.319159      48.096211      48.096211     -0.050888756   -0.0067099597  -0.047957769   -0.016671114   -0.013401746   -0.021560911    604.68513      70534.742    
    344000   344            0.99886277     0.0079612027   16.630248      1.4982795      21.105605      18.128528     -4.4753571      2481.3381      49.328858      48.097889      48.097889      0.019538355   -0.028582811    0.032928064    0.016057846   -0.029960592    0.036492503    611.91712      70541.236    
    348000   348            0.99543087     0.041720738    16.640705      1.4931317      21.108011      18.133836     -4.4673062      1957.4787      49.338557      48.108176      48.108176      0.024738897    0.0335652      0.066858117    0.029732328    0.036644702   -0.0047501018   619.09079      70540.77     
    352000   352            1.00251       -0.003162356    16.63508       1.5037503      21.109631      18.13883      -4.4745511      1466.0343      49.348256      48.100673      48.100673     -0.0013502915   0.0022205069  -0.010357283   -0.0016859074   0.0041362735  -0.014726408    626.26767      70540.513    
    356000   356            0.999331      -0.019231413    16.633568      1.4989819      21.105053      18.13255      -4.4714848      2129.6452      49.357955      48.099377      48.099377      0.012658528   -0.0088246829  -0.061528084    0.050200682   -0.032513021    0.0029644134   633.40712      70535.933    
    360000   360            0.99811023    -0.013869588    16.626101      1.4971507      21.10413       18.123252     -4.478029       3102.767       49.367654      48.077511      48.077511     -0.079497014    0.040281716   -0.0023934649   0.037936419    0.029394035    0.027952807    640.57495      70534.42     
    364000   364            0.99955796     0.044096426    16.640744      1.4993223      21.104205      18.140066     -4.463461       1399.5527      49.377353      48.132405      48.132405      0.042895839    0.066815927    0.022577512    0.0067610134  -0.0061792089  -0.042554359    647.7789       70536.716    
    368000   368            0.99955091     0.032824894    16.638021      1.4993117      21.108573      18.137333     -4.4705519      1699.8864      49.387052      48.094167      48.094167      0.013062511   -0.012430491    0.097842662   -0.0042996148   0.026830938   -0.093609113    654.90068      70529.956    
    372000   372            0.99349418    -0.069696974    16.638533      1.4902267      21.109561      18.12876      -4.4710275      2599.5853      49.396751      48.097243      48.097243     -0.0833955     -0.061046147   -0.064649274    0.043257963   -0.0085264852  -0.051883963    662.04853      70525.966    
    376000   376            0.99975801     0.0076349798   16.643608      1.4996224      21.105715      18.143231     -4.4621065      1136.1699      49.40645       48.110053      48.110053      0.0026306289   0.022428555   -0.0021542444  -0.070983402   -0.00060116866  0.0093791295   669.1661       70518.717    
    380000   380            0.99922646    -0.0358068      16.641566      1.4988251      21.107136      18.140391     -4.4655699      1447.023       49.416149      48.092982      48.092982     -0.054922512   -0.044656458   -0.0078414306  -0.035058093   -0.0040686597   0.045405316    676.11951      70494.356    
    384000   384            0.99710069    -0.04085777     16.63527       1.4956364      21.105804      18.130906     -4.4705348      2439.5678      49.425848      48.061976      48.061976     -0.074061641    0.01522452    -0.063736189    0.0098897122   0.022783828    0.018461468    683.2002       70483.487    
    388000   388            1.0022176      0.012685875    16.627323      1.5033117      21.10007       18.130634     -4.4727471      2487.0689      49.435547      48.04006       48.04006       0.015421784    0.033942478   -0.011306638    0.037532167    0.040551447    0.018178446    690.13944      70458.256    
    392000   392            1.0018418     -0.0090921184   16.641261      1.5027481      21.10842       18.144009     -4.4671585      1136.9027      49.445246      48.072887      48.072887     -0.039263707    0.017833077   -0.0058457247  -0.071542618   -0.0092783764   0.025484916    697.23128      70448.818    
    396000   396            1.0001303     -0.068336697    16.633753      1.5001808      21.10497       18.133934     -4.4712174      2189.5409      49.454945      48.05973       48.05973      -0.10242021    -0.073371584   -0.029218299   -0.025770688   -0.030146869   -0.028538209    704.34034      70441.149    
    400000   400            0.99685273     0.00088406172  16.635427      1.4952645      21.108155      18.130692     -4.4727279      2541.9854      49.464644      48.035945      48.035945      0.030804981    0.010636205   -0.038789001   -0.017812688    0.062766712    0.024600626    711.66445      70454.781    
    404000   404            0.99821901    -0.058192089    16.643433      1.4973139      21.109533      18.140747     -4.4661004      1531.8169      49.474343      48.078796      48.078796     -0.049703      -0.067232828   -0.057640438   -0.035437235    0.054842937    0.018324002    718.80687      70450.19     
    408000   408            1.0013784     -0.053674172    16.636443      1.5020529      21.104236      18.138496     -4.4677927      1782.384       49.484042      48.056937      48.056937     -0.025766832   -0.068875135   -0.066380549   -0.010997326   -0.041998649   -0.025415508    725.87144      70437.995    
    412000   412            0.99916274    -0.015886217    16.634189      1.4987295      21.106519      18.132918     -4.4723298      2374.0698      49.49374       48.04842       48.04842      -0.052715006    0.042529707   -0.037473351   -0.015239045    0.012241281    0.011815918    733.01194      70433.196    
    416000   416            0.99698592     0.0021900367   16.640745      1.4954643      21.107318      18.136209     -4.4665728      2057.4061      49.503439      48.059904      48.059904      0.01294202     0.0058028312  -0.012174741    0.041150664   -0.024627479   -0.035576921    740.07411      70420.898    
    420000   420            1.0020753     -0.0033038325   16.640601      1.5030983      21.10715       18.143699     -4.4665493      1310.1595      49.513138      48.053189      48.053189     -0.003357821   -0.0090374407   0.0024837642  -0.04614496     0.0062901016  -0.035437881    747.05417      70400.962    
    424000   424            0.99816       -0.017097262    16.633198      1.4972254      21.103482      18.130423     -4.4702847      2690.5791      49.522837      48.004153      48.004153     -0.012126889   -0.029426444   -0.0097384547   0.014424529   -0.031268139   -0.00072674809  754.13032      70390.24     
    428000   428            0.9981336     -0.014540925    16.635164      1.4971858      21.107173      18.13235      -4.4720092      2513.393       49.532536      48.019072      48.019072      0.013621942   -0.024537649   -0.032707069    0.013389287    0.0085223917  -0.038167409    761.1641       70375.668    
    432000   432            1.0010448     -0.015028063    16.641787      1.5015526      21.10847       18.14334      -4.4666832      1407.4201      49.542235      48.028175      48.028175      0.014177032   -0.031178248   -0.028082975    0.036817985   -0.0044027798   0.068139762    768.33128      70373.454    
    436000   436            1.0007736      0.039837295    16.635457      1.5011458      21.108374      18.136603     -4.4729167      2118.0356      49.551934      48.003614      48.003614      0.0099021375   0.084664018    0.024945728   -0.0081533898   0.018875966   -0.0044296046   775.41112      70363.224    
    440000   440            0.99989986    -0.055038028    16.628734      1.4998352      21.104361      18.12857      -4.4756263      2961.2766      49.561633      48.001912      48.001912     -0.13410782     0.025657215   -0.056663478   -0.024558477    0.027601312    0.011876198    782.55999      70359.257    
    444000   444            1.00271       -0.027182245    16.62691       1.5040503      21.105535      18.130961     -4.4786252      2736.5025      49.571332      47.977718      47.977718     -0.057480356   -0.0064084022  -0.017657976   -0.022651747    0.014302263   -0.0048646491   789.47087      70334.031    
    448000   448            1.0004631     -0.034414572    16.638874      1.5006799      21.108462      18.139554     -4.4695879      1876.5208      49.581031      48.018433      48.018433     -0.035364342   -0.003302227   -0.064577146    0.016882744    0.014987732   -0.014101286    796.65814      70333.533    
    452000   452            0.99955052    -0.0024936912   16.642363      1.4993111      21.111178      18.141674     -4.4688144      1679.8805      49.59073       48.001449      48.001449      0.043004408   -0.022409455   -0.028076027   -0.023776095    0.01498475    -0.013877513    803.8662       70334.736    
    456000   456            1.0019569     -0.029746001    16.634188      1.5029207      21.104632      18.137109     -4.4704439      2167.9299      49.600429      47.98171       47.98171      -0.029306124   -0.077006787    0.017074908   -0.022609982   -0.0070804405  -0.019804333    810.94897      70324.925    
    460000   460            0.99500317    -0.00078259914  16.639196      1.4924902      21.107415      18.131686     -4.4682194      2743.9708      49.610128      47.98703       47.98703       0.0097152918   0.041354288   -0.053417377    0.0087082161   0.0060202746  -0.01476237     818.10897      70321.802    
    464000   464            0.99338525    -0.012017019    16.63361       1.4900633      21.105749      18.123673     -4.472139       3585.7355      49.619827      47.962757      47.962757     -0.0047753839  -0.035547676    0.0042720031  -0.0055934537  -0.010277934    0.00057616698  825.23587      70315.787    
    468000   468            0.99460683     0.01017669     16.642204      1.4918957      21.110555      18.1341       -4.4683505      2537.2536      49.629526      47.973143      47.973143      0.013652802    0.0021109214   0.014766346   -0.011027359    0.028648129   -0.031461429    832.29941      70304.402    
    472000   472            1.0003015     -0.047876338    16.638178      1.5004376      21.108108      18.138615     -4.4699297      2094.3732      49.639225      47.972742      47.972742     -0.0786004     -0.039701594   -0.025327019   -0.019122439   -0.0050338098   0.00084657902  839.43045      70298.743    
    476000   476            0.99929074    -0.048039546    16.633962      1.4989215      21.106024      18.132883     -4.4720624      2702.0169      49.648924      47.981363      47.981363     -0.08434317    -0.054341485   -0.0054339837   0.01925986     0.020871923   -0.01447946     846.60065      70296.311    
    480000   480            0.99607181    -0.018032885    16.639724      1.4940931      21.108111      18.133817     -4.4683871      2626.9017      49.658623      47.973658      47.973658      0.018064909   -0.049214095   -0.022949471    0.0060526575   0.021880779   -0.042477189    853.60981      70280.542    
    484000   484            0.99938456    -0.036504519    16.642841      1.4990622      21.110164      18.141903     -4.467323       1818.5095      49.668322      47.974297      47.974297     -0.11278439     0.023046725   -0.019775889   -0.0052874733   0.021052686   -0.046597975    860.65905      70268.188    
    488000   488            0.99732572     0.014550972    16.632342      1.495974       21.102578      18.128316     -4.4702365      3230.9604      49.678021      47.94146       47.94146       0.022778196    0.0097426238   0.011132097   -0.003149341   -0.011542681   -0.018992939    867.6021       70247.325    
    492000   492            0.99326455    -0.019167458    16.641088      1.4898823      21.105912      18.13097      -4.4648243      2979.6708      49.687719      47.958608      47.958608      0.006439777   -0.048206798   -0.015735353    0.015991235    0.060994429    0.02000465     874.70662      70239.653    
    496000   496            1.000483      -0.024221027    16.643645      1.5007099      21.103111      18.144355     -4.4594656      1628.1011      49.697418      47.965276      47.965276     -0.0012093352  -0.037270018   -0.034183729    0.012230303    0.012518515   -0.017414037    881.8242       70233.031    
    500000   500            0.99836383     0.026211809    16.640446      1.4975311      21.109561      18.137977     -4.4691144      2302.1962      49.707117      47.950075      47.950075     -0.039123646    0.091150162    0.02660891     0.041018248   -0.0047297337   0.014537075    888.92595      70225.15     
    504000   504            0.9985986     -0.0095234894   16.631684      1.4978833      21.106609      18.129567     -4.4749255      3184.3024      49.716816      47.916287      47.916287     -0.008341925   -0.00050191836 -0.019726625    0.01609722    -0.011944141   -0.033584311    896.00237      70215.297    
    508000   508            0.99786058     0.017584653    16.641391      1.4967763      21.112199      18.138168     -4.4708078      2323.1427      49.726515      47.928891      47.928891      0.008466239   -0.028069464    0.072357183   -0.014344739   -0.025341129    0.044803224    903.16196      70211.953    
    512000   512            1.0016727     -0.012948235    16.636613      1.5024944      21.109882      18.139108     -4.4732692      2246.8799      49.736214      47.906262      47.906262     -0.029763068    0.00077844045 -0.009860076    0.0061587163  -0.02541063     0.014108501    910.26647      70204.302    
    516000   516            0.9971346     -0.023699653    16.632123      1.4956873      21.10189       18.127811     -4.4697666      3424.818       49.745913      47.914207      47.914207     -0.0027449073  -0.063909143   -0.0044449094   0.014938882    0.02225047     0.022289105    917.40544      70199.296    
    520000   520            0.9997512      0.043145777    16.635771      1.4996122      21.102834      18.135384     -4.4670624      2668.6655      49.755612      47.910655      47.910655      0.0022835488   0.10336988     0.023783901    0.062357065    0.019534208   -0.041972888    924.60096      70198.55     
    524000   524            1.0009077      0.031227451    16.644163      1.501347       21.108864      18.14551      -4.4647001      1651.052       49.765311      47.909269      47.909269      0.018764819    0.0084857293   0.066431805   -0.010300629    0.0037752424   0.018296337    931.86901      70203.17     
    528000   528            1.0016782      0.052085677    16.630596      1.5025026      21.106872      18.133098     -4.4762763      2943.0649      49.77501       47.868107      47.868107      0.11269421     0.030322607    0.013240216   -0.00044161046  0.0083595049   0.027861152    938.98879      70196.526    
    532000   532            1.0021116     -0.0093664592   16.625691      1.5031527      21.104996      18.128843     -4.4793053      3399.2579      49.784709      47.861486      47.861486      0.031657459    0.030399616   -0.090156453    0.03004567     0.030677185    0.015133867    946.07069      70187.064    
    536000   536            1.003156       0.0016171428   16.638189      1.5047194      21.110827      18.142908     -4.4726377      1977.8206      49.794408      47.882101      47.882101     -0.0079261552   0.027022281   -0.014244697    0.025675384    0.018420089   -0.01367728     953.35866      70192.81     
    540000   540            1.0032871      0.032427142    16.636196      1.504916       21.106981      18.141112     -4.4707846      2182.0548      49.804107      47.881103      47.881103      0.0075191342   0.074342138    0.015420152   -0.030695299    0.03456547    -0.024582184    960.5626       70192.223    
    544000   544            0.99732692    -0.028011775    16.634187      1.4959758      21.105089      18.130163     -4.4709023      3324.2756      49.813806      47.884072      47.884072     -0.019257126   -0.020007819   -0.04477038    -0.039189518    0.0090360779   0.012841167    967.74117      70189.698    
    548000   548            0.99601853    -0.010157665    16.637258      1.4940132      21.106832      18.131272     -4.4695736      3230.7856      49.823505      47.878205      47.878205     -0.018042879   -0.052087696    0.03965758     0.038130089    0.0065670348  -0.0028916464   974.97598      70191.154    
    552000   552            1.0041454     -0.038650254    16.63932       1.5062035      21.110377      18.145524     -4.4710568      1790.4718      49.833204      47.892467      47.892467     -0.031951726   -0.043731953   -0.040267084   -0.021536669    0.01806027     0.029148019    981.97379      70175.547    
    556000   556            1.0031441     -0.0042761348   16.639561      1.5047014      21.108995      18.144263     -4.4694338      1939.8771      49.842903      47.869478      47.869478     -0.03315735    -0.042749122    0.063078067    0.04154582    -0.0064035765  -0.017808441    989.08557      70168.15     
    560000   560            1.0022773     -0.0027442455   16.63381       1.5034013      21.106885      18.137212     -4.4730751      2682.4706      49.852602      47.846732      47.846732     -0.042940695   -0.0025761661   0.037284125   -0.0063103854  -0.0089273081   0.00018783532  996.30595      70168.405    
    564000   564            0.99981074     0.043940142    16.633598      1.4997015      21.10633       18.133299     -4.4727324      3103.59        49.862301      47.835211      47.835211      0.066837597    0.031868384    0.033114445    0.010547903   -0.024423433    0.016380342    1003.4255      70161.506    
    568000   568            0.99964617     0.036883737    16.639048      1.4994546      21.111412      18.138502     -4.4723644      2590.5706      49.872         47.835015      47.835015      0.01742018     0.039248704    0.053982328   -0.022414685    0.031627663   -0.018694465    1010.4367      70147.075    
    572000   572            1.0052151      0.0071754629   16.630304      1.5078079      21.107312      18.138112     -4.4770081      2650.4115      49.881698      47.819301      47.819301      0.03265848     0.0020189137  -0.013151005    0.0026263584  -0.024475668    0.021175906    1017.4943      70135.953    
    576000   576            1.0006438      0.082642736    16.628053      1.5009511      21.105338      18.129004     -4.4772859      3604.008       49.891397      47.793883      47.793883      0.10359853     0.034771259    0.10955842     0.015666563   -0.027832097   -0.038344725    1024.5403      70124.09     
    580000   580            1.0049551      0.0061423431   16.633969      1.5074179      21.1086        18.141387     -4.4746302      2354.8332      49.901096      47.812034      47.812034     -0.0036189762  -0.013199047    0.035245052    0.057284466    0.039521643   -0.040955186    1031.5144      70107.409    
    584000   584            1.0010385     -0.040556026    16.640128      1.5015432      21.106933      18.141672     -4.4668041      2346.3965      49.910795      47.842288      47.842288     -0.059874762   -0.049319606   -0.012473709   -0.0030930282  -0.037311348   -0.0059241003   1038.6516      70101.871    
    588000   588            1.0008104      0.017369062    16.625876      1.501201       21.105714      18.127077     -4.479838       3862.0625      49.920494      47.801617      47.801617      0.049101842   -0.023988641    0.026993986   -0.014333213    0.024918143   -0.024180206    1045.7342      70092.647    
    592000   592            1.0041867      0.0099944099   16.627519      1.5062654      21.105319      18.133785     -4.4778         3194.9099      49.930193      47.791102      47.791102      0.0068940408  -0.03004445     0.053133639    0.021833567    0.033607939    0.013730542    1052.8055      70082.701    
    596000   596            1.0043872     -0.041727121    16.639251      1.5065662      21.109257      18.145818     -4.4700054      1981.9666      49.939892      47.831762      47.831762     -0.021982741   -0.10349899     0.0003003674   0.046998871   -0.038499365    0.0042844931   1060.0088      70081.521    
    600000   600            1.0036678     -0.053118847    16.640093      1.505487       21.105648      18.14558      -4.465555       2026.4132      49.949591      47.829733      47.829733     -0.078681145   -0.068514662   -0.012160733   -0.019903998   -0.022492166   -0.0043174245   1067.2624      70083.566    
    604000   604            0.99815803    -0.045655045    16.637796      1.4972224      21.107683      18.135018     -4.469887       3129.1653      49.95929       47.829364      47.829364     -0.056195014   -0.05377545    -0.026994671   -0.014759839   -0.0037567207  -0.015226916    1074.4661      70082.229    
    608000   608            1.0012304      0.0041606673   16.631904      1.5018309      21.107072      18.133735     -4.4751684      3280.9162      49.968989      47.793727      47.793727     -0.018516799    0.0089633387   0.022035462    0.00021826878  0.047778377   -0.030025668    1081.6462      70079.288    
    612000   612            1.0033313      0.020200213    16.640393      1.5049823      21.107844      18.145375     -4.4674508      2107.8375      49.978688      47.807534      47.807534      0.0076351148   0.08998235    -0.037016827    0.026024573   -0.033462772   -0.0089479508   1088.772       70072.797    
    616000   616            1.0013623      0.013201486    16.63847       1.5020288      21.108191      18.140499     -4.469721       2627.3301      49.988387      47.783188      47.783188      0.084587232   -0.032468438   -0.012514336    0.025488646    0.0047206517   0.010599351    1095.947       70069.444    
    620000   620            0.99924037    -0.028997566    16.63258       1.4988459      21.107716      18.131426     -4.4751356      3577.3276      49.998086      47.76634       47.76634      -0.066240543   -0.010951549   -0.0098006048   0.030844516   -0.047518665    0.024444181    1102.9242      70053.478    
    624000   624            1.0022517      0.023251118    16.63611       1.5033629      21.111005      18.139473     -4.4748947      2772.5317      50.007785      47.761788      47.761788      0.018309288   -0.0095772286   0.061021295   -0.018695516    0.0052630083  -0.012935085    1110.0565      70047.41     
    628000   628            1.0001046      0.020070528    16.639362      1.5001423      21.106973      18.139505     -4.4676104      2789.5342      50.017484      47.795372      47.795372      0.025067687    0.034184013    0.0009598837  -0.029946784   -0.054070342   -0.011881557    1117.0202      70030.762    
    632000   632            0.99839867    -0.010035939    16.63222       1.4975834      21.104369      18.129803     -4.4721488      3803.7741      50.027183      47.767523      47.767523      0.034493567   -0.069491855    0.0048904702  -0.0039783038   0.0044474323   0.024616455    1124.2026      70027.858    
    636000   636            0.99828576     0.0023432046   16.638284      1.497414       21.107242      18.135698     -4.4689582      3219.6346      50.036882      47.784568      47.784568     -0.018166156    0.0081114458   0.017084325   -0.029236707    0.020886727    0.013966368    1131.5181      70033.14     
    640000   640            0.99965203     0.024342524    16.641219      1.4994634      21.106171      18.140682     -4.4649516      2728.7859      50.046581      47.788094      47.788094      0.01951689     0.0055397079   0.047970974   -0.015628815   -0.026672113    0.027611684    1138.7307      70031.936    
    644000   644            0.99561649     0.013922642    16.63751       1.4934102      21.109301      18.13092      -4.4717912      3749.6061      50.05628       47.765996      47.765996      0.02570298    -0.018933921    0.034998867    0.0096799553   0.021229787    0.019980917    1145.9355      70030.181    
    648000   648            0.99553574    -0.0073057503   16.629022      1.493289       21.106257      18.122311     -4.4772345      4651.5284      50.065979      47.731384      47.731384     -0.0542318     -0.025722068    0.058036618    0.037194941    0.008296961    0.025871276    1152.9074      70014.216    
    652000   652            0.99753892    -0.0051573958   16.639504      1.4962938      21.109506      18.135797     -4.4700029      3289.5464      50.075677      47.75304       47.75304       0.0080438844   0.018074047   -0.041590119   -0.031992143    0.01663188     0.017703052    1160.0924      70011.221    
    656000   656            1.0009801     -0.029290328    16.634713      1.5014555      21.106608      18.136169     -4.4718949      3271.4411      50.085376      47.745988      47.745988     -0.075875385    0.046734702   -0.058730301   -0.030720362   -0.037517497    0.0078584683   1167.4098      70016.115    
    660000   660            0.99990227     0.035553695    16.627199      1.4998388      21.107241      18.127037     -4.4800421      4227.401       50.095075      47.696179      47.696179      0.016776211    0.020304675    0.0695802      0.0080539905  -0.047670516    0.022861645    1174.4963      70007.097    
    664000   664            1.0016757      0.069798365    16.624772      1.5024988      21.102725      18.127271     -4.4779531      4223.3682      50.104774      47.708982      47.708982      0.061820914    0.036196376    0.11137781     0.030598496    0.011154416    0.03716809     1181.5812      69998.01     
    668000   668            1.0000763      0.014973688    16.63538       1.5000998      21.108908      18.13548      -4.4735279      3401.8516      50.114473      47.725922      47.725922     -0.037634018    0.025466254    0.057088827    0.020938697    0.011517888   -0.069687842    1188.5952      69984.767    
    672000   672            1.0050789     -0.032419816    16.63036       1.5076036      21.104763      18.137964     -4.4744033      3167.0027      50.124172      47.730554      47.730554     -0.050447492   -0.0023981157  -0.044413842    0.0030688556  -0.0092444337   0.037073476    1195.6968      69976.73     
    676000   676            0.99633624     0.0093140413   16.635908      1.4944898      21.108627      18.130398     -4.4727186      3962.6795      50.133871      47.719592      47.719592      0.060624962    0.018736498   -0.051419336    0.013260657   -0.021480436   -0.00041257017  1202.9134      69975.397    
    680000   680            0.99740382    -0.029087215    16.631494      1.4960911      21.103861      18.127585     -4.4723674      4270.4096      50.14357       47.728406      47.728406      0.0049314825  -0.05980295    -0.032390176    0.064539436   -0.02436951     0.010441255    1210.0397      69968.768    
    684000   684            0.99871298     0.0061493585   16.640142      1.4980549      21.104434      18.138197     -4.4642922      3202.9712      50.153269      47.747992      47.747992     -0.085368666    0.10872567    -0.0049089302  -0.048214      -0.015726756   -0.0012927396   1217.0891      69957.712    
    688000   688            0.99387659    -0.078748714    16.639524      1.4908003      21.1086        18.130324     -4.4690763      4029.797       50.162968      47.740664      47.740664     -0.12977493    -0.053348867   -0.053122345   -0.010590012    0.016943258    0.011796248    1224.1955      69949.96     
    692000   692            0.99859614     0.015355761    16.633412      1.4978796      21.105331      18.131292     -4.4719188      3950.5138      50.172667      47.700866      47.700866      0.011418689   -0.0053234039   0.039971996   -0.037582784    0.037354202   -0.013493114    1231.3074      69942.532    
    696000   696            1.0018005     -0.063419522    16.642354      1.5026861      21.108548      18.14504      -4.4661942      2561.6953      50.182366      47.729848      47.729848     -0.074803375   -0.080122482   -0.035332708   -0.0022130296  -0.015413073    0.054622804    1238.3615      69931.84     
    700000   700            1.0008313     -0.036905523    16.634193      1.5012323      21.106         18.135426     -4.4718068      3566.8883      50.192065      47.70058       47.70058      -0.012393403   -0.07564112    -0.022682048    0.0087790589   0.022549452    0.0038436619   1245.4195      69921.408    
    704000   704            0.99830975     0.0041493929   16.632832      1.49745        21.106918      18.130282     -4.4740861      4114.1094      50.201764      47.677901      47.677901      0.009491411   -0.0067002901   0.0096570578   0.0012389285  -0.02935574     0.017314833    1252.3978      69906.57     
    708000   708            0.99830589     0.0098761546   16.636613      1.4974442      21.107382      18.134057     -4.4707684      3746.6988      50.211463      47.681961      47.681961      0.0062570051   0.025699085   -0.0023276258   0.0046314644   0.0072116609  -0.035271271    1259.3918      69892.688    
    712000   712            1.0018867      0.01488459     16.636702      1.5028154      21.104814      18.139517     -4.4681125      3207.0634      50.221162      47.691081      47.691081     -0.02300973     0.0055355699   0.062127928    0.030146403   -0.027018159   -0.00038403073  1266.4513      69882.497    
    716000   716            0.99879791    -0.028421605    16.64181       1.4981822      21.106905      18.139993     -4.4650944      3178.4897      50.230861      47.701468      47.701468     -0.050204041   -0.025926034   -0.0091347419  -0.016756532   -0.0071233003   0.03346367     1273.5255      69873.148    
    720000   720            0.99451928    -0.02353731     16.639362      1.4917644      21.108184      18.131126     -4.4688226      4107.1973      50.24056       47.696258      47.696258     -0.010958641   -0.012073101   -0.047580189   -0.024102407   -0.044257408   -0.010730659    1280.7155      69870.146    
    724000   724            0.99711489    -0.0058318138   16.639114      1.4956578      21.104157      18.134772     -4.4650428      3753.7103      50.250259      47.678205      47.678205      0.041512994   -0.01242282    -0.046585616   -0.0028902574  -0.0065014128  -0.0048020884   1288.1026      69877.787    
    728000   728            1.0007768      0.018112348    16.640849      1.5011505      21.104398      18.141999     -4.4635489      3032.5875      50.259957      47.703838      47.703838     -0.019595397    0.037432614    0.036499826    0.00016156093  0.028443945    0.019395049    1295.2317      69871.347    
    732000   732            0.99764719    -0.019128616    16.633041      1.4964562      21.108011      18.129497     -4.4749697      4333.8793      50.269656      47.666828      47.666828     -0.023190929   -0.0056113126  -0.028583606    0.054179068   -0.0016137107   0.042660663    1302.2955      69861.391    
    736000   736            0.99710276    -0.049836461    16.634171      1.4956395      21.107046      18.129811     -4.4728745      4321.9128      50.279355      47.667885      47.667885     -0.066717096   -0.024247146   -0.05854514    -0.017009578   -0.00039044767  0.0042599387   1309.5182      69859.952    
    740000   740            1.0014912      0.019959549    16.637299      1.5022221      21.105327      18.139521     -4.468028       3346.8805      50.289054      47.652153      47.652153      0.039615052    0.04014831    -0.019884714    0.046112898    0.021612134    0.034428504    1316.6706      69854.716    
    744000   744            0.99927327     0.016271419    16.637306      1.4988953      21.109349      18.136201     -4.4720426      3707.5357      50.298753      47.651645      47.651645      0.010738283    0.020099152    0.017976823   -0.0070257946   0.0043256397   0.010974409    1323.7534      69845.782    
    748000   748            1.0046514     -0.06661678     16.639577      1.5069625      21.110173      18.146539     -4.4705961      2667.8536      50.308452      47.647134      47.647134     -0.10823523    -0.034455058   -0.057160057   -0.029584287   -0.02625656    -0.026513189    1330.8334      69836.728    
    752000   752            1.0046963      0.069276749    16.638902      1.5070297      21.104701      18.145932     -4.4657984      2750.401       50.318151      47.635406      47.635406      0.060370052    0.10463597     0.042824226    0.016000632    0.045316809    0.018136244    1337.9338      69828.758    
    756000   756            1.0002799      0.027307849    16.635634      1.5004052      21.108102      18.136039     -4.4724685      3784.4807      50.32785       47.629101      47.629101      0.0417155      0.020565019    0.019643029   -0.071635722    0.0036120326  -0.0097132457   1344.8813      69812.86     
    760000   760            0.99928938     0.0042990222   16.632718      1.4989195      21.105632      18.131638     -4.4729136      4255.8555      50.337549      47.63401       47.63401      -0.092553252    0.044360223    0.061090096   -0.017345164    0.0043608989  -0.025647292    1351.9237      69801.955    
    764000   764            0.99828836     0.032115232    16.633131      1.4974179      21.109551      18.130549     -4.4764201      4387.9051      50.347248      47.608795      47.608795      0.064762268    0.010252848    0.021330581    0.021334704    0.038886431    0.013467762    1359.0817      69797.029    
    768000   768            1.0025036      0.0091100073   16.640714      1.5037407      21.109918      18.144455     -4.4692034      2982.8511      50.356947      47.625843      47.625843      0.018286462    0.034229542   -0.025185982    0.020032511    0.050403025   -0.0079616937   1366.0833      69784.091    
    772000   772            0.99903341    -0.015303309    16.63806       1.4985355      21.107609      18.136595     -4.4695492      3808.5578      50.366646      47.624432      47.624432     -0.061330012    0.021209553   -0.0057894685   0.019140459    0.030965053    0.0082656936   1373.1685      69775.458    
    776000   776            0.99662717    -0.008157741    16.62563       1.4949262      21.103012      18.120556     -4.4773819      5472.2783      50.376345      47.587266      47.587266     -0.024945066   -0.0022027762   0.0026746194  -0.00015024484 -0.048327549   -0.026035126    1380.3408      69771.245    
    780000   780            0.99669821    -0.051318847    16.633061      1.4950327      21.103439      18.128094     -4.4703786      4719.9106      50.386044      47.614961      47.614961     -0.13338233     0.011504713   -0.032078926    0.025889665    0.020909926    0.023186733    1387.3668      69759.648    
    784000   784            1.0027114     -0.01233254     16.634468      1.5040525      21.105637      18.138521     -4.4711681      3671.4266      50.395743      47.596458      47.596458     -0.017027018    0.010483119   -0.030453722    0.028515439    0.035192325   -0.0011295104   1394.4684      69751.878    
    788000   788            1.0026414      0.017287753    16.638996      1.5039474      21.10936       18.142943     -4.4703645      3238.0438      50.405442      47.589652      47.589652     -0.01833868     0.059056843    0.011145097    0.0071033939  -0.068924718    0.0095534352   1401.5496      69743.101    
    792000   792            1.0017881     -0.00063907089  16.627566      1.5026675      21.104149      18.130234     -4.4765825      4560.841       50.415141      47.576677      47.576677     -0.027417829   -0.010545644    0.036046261   -0.013262764   -0.0062821803   0.031026375    1408.7042      69737.974    
    796000   796            1.0009209     -0.0017589706   16.631205      1.5013667      21.106371      18.132572     -4.4751653      4340.919       50.42484       47.573508      47.573508     -0.059910269    0.043011041    0.011622316    0.025447727    0.023221523   -0.020704814    1415.7153      69725.758    
    800000   800            1.0017893      0.015543086    16.635931      1.5026693      21.108695      18.1386       -4.4727646      3742.8043      50.434539      47.580914      47.580914      0.015398137    0.023920508    0.0073106129  -0.0080533834   0.01211079     0.025258443    1422.772       69715.83     
    804000   804            1.0015843      0.041091699    16.62873       1.5023618      21.106694      18.131092     -4.4779641      4531.8148      50.444238      47.553614      47.553614     -0.0053404025   0.067021468    0.061594033   -0.024045668   -0.019933661    0.0085880577   1429.8406      69706.509    
    808000   808            0.99907077     0.021014017    16.626925      1.4985915      21.10322       18.125517     -4.4762944      5123.0777      50.453936      47.546021      47.546021      0.026987286    0.002055681    0.033999086    0.017702651   -0.0069151052  -0.052905199    1437.003       69701.759    
    812000   812            1.0027384      0.024841349    16.633863      1.5040929      21.104959      18.137956     -4.4710954      3868.4963      50.463635      47.575548      47.575548      0.043482421    0.012021065    0.019020563    0.012075921   -0.010169593    0.013463194    1444.2163      69699.442    
    816000   816            1.0034685      0.0047420317   16.63378       1.505188       21.107251      18.138969     -4.4734704      3784.7984      50.473334      47.57058       47.57058       0.024383285   -0.018039233    0.0078820437   0.0056672057   0.010233933    0.047003279    1451.2959      69690.658    
    820000   820            1.0008012      0.0047808242   16.62532       1.5011872      21.104999      18.126507     -4.4796791      5082.063       50.483033      47.527213      47.527213      0.03210773    -0.034189747    0.016424489    0.010807449   -0.017481798    0.019367623    1458.392       69682.682    
    824000   824            1.000505      -0.040971849    16.631291      1.5007429      21.103939      18.132034     -4.4726479      4535.3896      50.492732      47.566494      47.566494     -0.048361329   -0.016066079   -0.058488139    0.029173199    0.026809139   -0.019803882    1465.5491      69677.612    
    828000   828            1.0020981     -0.05064635     16.63403       1.5031325      21.107097      18.137163     -4.4730668      4030.0646      50.502431      47.541867      47.541867     -0.084088912   -0.047763567   -0.020086571   -0.01699101    -0.050463101   -0.043745478    1472.781       69676.059    
    832000   832            0.99897704     0.028443749    16.635572      1.4984509      21.105364      18.134023     -4.4697916      4371.8725      50.51213       47.545637      47.545637     -0.013913044    0.032215031    0.067029259   -0.013437433    0.025524415   -0.0271259      1479.8033      69664.586    
    836000   836            1.0019696      0.023177807    16.64135       1.5029398      21.112661      18.14429      -4.4713109      3339.3123      50.521829      47.53523       47.53523       0.049146378    0.0373442     -0.016957156    0.0056841035  -0.01052191     0.024306299    1487.0375      69663.08     
    840000   840            0.99872618    -0.0086514991   16.637706      1.4980747      21.108201      18.135781     -4.4704954      4231.0562      50.531528      47.536335      47.536335      0.015071258    0.033345924   -0.074371679   -0.0081996818   0.02410869    -0.020424381    1494.135       69655.149    
    844000   844            0.99742379     0.016477094    16.629877      1.4961211      21.10689       18.125998     -4.477013       5253.6013      50.541227      47.537314      47.537314     -0.013975018    0.021016742    0.04238956     0.043358124   -0.0031219538   0.035551875    1501.3037      69650.532    
    848000   848            0.99815947    -0.032786625    16.636946      1.4972246      21.10252       18.134171     -4.4655737      4435.6436      50.550926      47.564869      47.564869     -0.0063779444  -0.080495216   -0.011486715   -0.0062029447  -0.0054344984   0.0094270939   1508.4223      69643.574    
    852000   852            1.0000697     -0.044502936    16.640373      1.5000899      21.107774      18.140463     -4.4674007      3810.571       50.560625      47.554761      47.554761     -0.085950128   -0.021850101   -0.025708581    0.016818988    0.030311431    0.0033023817   1515.5067      69635.042    
    856000   856            0.9953125     -0.010419519    16.638677      1.4929542      21.106189      18.131631     -4.4675121      4735.6965      50.570324      47.543938      47.543938     -0.02036726    -0.015015908    0.0041246112   0.043076764    0.026424486   -0.0030254215   1522.6636      69629.843    
    860000   860            1.0017414     -0.0018011286   16.631985      1.5025974      21.10945       18.134583     -4.4774649      4452.9873      50.580023      47.518442      47.518442     -0.025470917    0.017929081    0.0021384503  -0.0054826088  -0.0059737021   0.031469287    1529.6963      69618.97     
    864000   864            1.0046691     -0.0047831246   16.639511      1.5069889      21.108676      18.1465       -4.4691652      3251.6152      50.589722      47.513102      47.513102     -0.051488171    0.045186488   -0.008047691    0.012937796    0.024881862    0.0028376617   1536.6909      69606.408    
    868000   868            1.0012419     -0.0011329149   16.642697      1.5018482      21.110517      18.144546     -4.4678191      3472.3602      50.599421      47.522763      47.522763      0.027426041   -0.0058935554  -0.02493123     0.021576744   -0.002601435    0.029736954    1544.0523      69610.433    
    872000   872            1.0030488      0.013624561    16.634514      1.5045586      21.106886      18.139072     -4.4723724      4053.22        50.60912       47.496231      47.496231      0.0093762683   0.034689935   -0.0031925222  -0.0058263963   0.046365401    0.05110624     1551.2443      69606.751    
[...]
  39768000   39768          1.0030568     -0.13429595     16.64021       1.5045705      21.107712      18.144781     -4.4675018      125307.68      144.92171      28.093016      28.093016     -0.37119025    -0.020333327   -0.011364284    0.0078934855   0.020994251    0.015211732    77200.797      450.37681    
  39772000   39772          1.005171      -0.15538369     16.64965       1.5077417      21.108513      18.157392     -4.4588632      124024.7       144.93141      28.106884      28.106884     -0.39167096    -0.0071027047  -0.067377413    0.037811573   -0.021326003    0.019298719    77209.756      442.61854    
  39776000   39776          0.99981158    -0.10490058     16.648758      1.4997027      21.109249      18.148461     -4.4604905      124949.74      144.9411       28.102487      28.102487     -0.31537494     0.026332026   -0.02565884    -0.031291205   -0.014948493   -0.028788394    77218.719      434.86004    
  39780000   39780          1.000351      -0.083505726    16.645632      1.5005119      21.10606       18.146144     -4.4604285      125196.8       144.9508       28.098794      28.098794     -0.3183634      0.018668209    0.049178016    0.017986239   -0.042695631   -0.0033353256   77227.596      427.10083    
  39784000   39784          0.99737529    -0.21192022     16.659735      1.4960483      21.109942      18.155783     -4.4502071      124218.45      144.9605       28.135492      28.135492     -0.42612329    -0.071184353   -0.13845302     0.0545664     -0.0083252216  -0.048243193    77236.557      419.34185    
  39788000   39788          1.0002034     -0.058766938    16.646626      1.5002905      21.111616      18.146916     -4.4649902      125136.77      144.9702       28.089085      28.089085     -0.26223787     0.052859518    0.033077539   -0.042229191    0.018920021    0.036872428    77245.4        411.582      
  39792000   39792          0.99928382    -0.12445905     16.642855      1.4989111      21.10942       18.141766     -4.4665657      125673.96      144.9799       28.082001      28.082001     -0.41920767     0.064992814   -0.019162285    0.016930488   -0.03024701    -0.020504235    77254.107      403.82123    
  39796000   39796          1.000861      -0.10111684     16.649948      1.5012769      21.10742       18.151225     -4.4574725      124714.19      144.9896       28.089597      28.089597     -0.34568854     0.035269121    0.0070689018  -0.025405767   -0.051537945    0.017378225    77262.951      396.06096    
  39800000   39800          1.0035651     -0.1214993      16.648825      1.5053329      21.107554      18.154158     -4.4587294      124423.01      144.9993       28.092883      28.092883     -0.42064759     0.023764298    0.032385377   -0.029714692   -0.024586148   -0.030424274    77272.132      388.30217    
  39804000   39804          1.0022325     -0.094591812    16.64227       1.503334       21.10767       18.145604     -4.4654         125309.49      145.009        28.087137      28.087137     -0.31399023     0.036569231   -0.0063544378  -0.047610694   -0.00026239726 -0.009969049    77281.071      380.54191    
  39808000   39808          1.0002499     -0.12211582     16.643827      1.5003603      21.108837      18.144187     -4.4650102      125464.19      145.0187       28.082307      28.082307     -0.36305093    -0.031145609    0.027849064    0.021590577    0.042604158    0.028619053    77289.792      372.78035    
  39812000   39812          1.0000841     -0.059703674    16.643837      1.5001115      21.10967       18.143949     -4.4658333      125497.94      145.0284       28.081416      28.081416     -0.28383455     0.050099974    0.054623554   -0.022335316    0.045248379    0.0015960068   77298.689      365.01943    
  39816000   39816          1.003139      -0.081649769    16.644306      1.5046938      21.107137      18.149        -4.462831       124989.79      145.03809      28.080278      28.080278     -0.30593398     0.051275444    0.0097092249   0.026529779   -0.026270725   -0.020858358    77307.735      357.25897    
  39820000   39820          1.0014205     -0.11345166     16.647611      1.502116       21.107876      18.149727     -4.4602655      124924.73      145.04779      28.084341      28.084341     -0.2988184     -0.040797761   -0.00073882695  0.0007699551  -0.031137459    0.010750386    77316.579      349.49735    
  39824000   39824          1.0023629     -0.11168469     16.635905      1.5035297      21.10503       18.139435     -4.4691246      125989         145.05749      28.067807      28.067807     -0.35544979     0.02441461    -0.0040188979   0.031833711   -0.013429192   -0.0027041066   77325.696      341.7367     
  39828000   39828          0.99860805    -0.067707027    16.653824      1.4978975      21.108365      18.151721     -4.4545411      124739.56      145.06719      28.091289      28.091289     -0.28533136     0.036379015    0.045831263    0.01938456     0.0066594155   0.032137366    77334.794      333.97571    
  39832000   39832          1.0009127     -0.11155066     16.649308      1.5013544      21.108677      18.150662     -4.4593696      124857.6       145.07689      28.087934      28.087934     -0.33637677     0.023930296   -0.022205504   -0.024299322    0.032208215   -0.031090997    77343.877      326.21439    
  39836000   39836          0.99917585    -0.1269666      16.642712      1.4987492      21.108123      18.141461     -4.4654107      125810.07      145.08659      28.084278      28.084278     -0.37840805    -0.0019708354  -0.00052089966  0.00033986271 -0.039289039    0.02291885     77352.752      318.45194    
  39840000   39840          1.0016928     -0.11928853     16.642761      1.5025245      21.109413      18.145286     -4.4666517      125427.55      145.09629      28.072291      28.072291     -0.37563388     0.032127465   -0.014359182   -0.026660838    0.036806184    0.036793816    77361.901      310.69036    
  39844000   39844          1.006458      -0.12688787     16.634861      1.5096723      21.106911      18.144533     -4.4720498      125514.08      145.10599      28.065147      28.065147     -0.40090884     0.040248206   -0.02000299     0.031489101    0.00017502944  0.016188312    77370.934      302.92806    
  39848000   39848          1.0030725     -0.056889855    16.644726      1.504594       21.110643      18.14932      -4.4659167      125033.32      145.11569      28.066718      28.066718     -0.3050584      0.082584877    0.051803957    0.031778948    0.01622989    -0.039305599    77380.057      295.16585    
  39852000   39852          1.0036025     -0.12738066     16.653317      1.5053891      21.110469      18.158706     -4.4571526      124080.87      145.12538      28.094759      28.094759     -0.41267359     0.021398363    0.009133238   -0.030218571   -0.011658558   -0.0010450398   77389.047      287.40286    
  39856000   39856          0.99601995    -0.10640796     16.647108      1.4940154      21.110091      18.141123     -4.4629829      125892.3       145.13508      28.077476      28.077476     -0.33162723    -0.018467155    0.030870514    0.0085898824  -0.0056258959  -0.019941474    77397.942      279.63929    
  39860000   39860          1.0030372     -0.076272543    16.644254      1.5045411      21.105591      18.148796     -4.4613365      125115.41      145.14478      28.082747      28.082747     -0.28037227     0.013031618    0.038523023    0.01375509     0.0092239872  -0.016511639    77406.94       271.87586    
  39864000   39864          1.0021722     -0.071970166    16.651322      1.5032437      21.107105      18.154566     -4.4557829      124533.88      145.15448      28.08824       28.08824      -0.28693368     0.0074751033   0.063548083    0.024292788    0.024447146    0.0060563575   77415.8        264.1117     
  39868000   39868          0.99895271    -0.13965612     16.642179      1.4984144      21.107222      18.140593     -4.4650436      125975.58      145.16418      28.071691      28.071691     -0.35265937    -0.042751683   -0.02355731     0.032787509    0.048459529    0.056853425    77424.853      256.34796    
  39872000   39872          0.99927445    -0.19331654     16.648172      1.498897       21.109185      18.147069     -4.461013       125321.41      145.17388      28.08774       28.08774      -0.39592041    -0.10968835    -0.074340856    0.009562628   -0.0017956831  -0.024975039    77433.904      248.58396    
  39876000   39876          0.99919454    -0.17119399     16.652252      1.4987772      21.104757      18.15103      -4.4525043      124925.09      145.18358      28.094086      28.094086     -0.37686721    -0.027901935   -0.10881282    -0.019399456    0.016977084   -0.049127877    77442.733      240.81901    
  39880000   39880          0.99887738    -0.097348819    16.644626      1.4983015      21.104861      18.142928     -4.4602343      125764.75      145.19328      28.07948       28.07948      -0.28534584    -0.011339023    0.0046384101  -0.062100853   -0.010016426    0.012330571    77451.712      233.0543     
  39884000   39884          1.0011729     -0.10145554     16.635459      1.5017447      21.102363      18.137204     -4.4669035      126360.81      145.20298      28.066387      28.066387     -0.30325181     0.0041700419  -0.0052848545   0.0091806396   0.091170769   -0.0070646915   77460.637      225.28919    
  39888000   39888          1.0029927     -0.15781077     16.641294      1.5044744      21.103273      18.145768     -4.4619785      125492.67      145.21268      28.066425      28.066425     -0.39787802    -0.020810556   -0.054743746    0.022000919   -0.018857703   -0.019849752    77469.465      217.52357    
  39892000   39892          1.0002686     -0.10993644     16.646622      1.5003882      21.110897      18.147011     -4.4642742      125375.12      145.22237      28.073634      28.073634     -0.35353999    -0.013253817    0.036984487   -0.0092561959  -0.0021481978   0.025579298    77478.257      209.75764    
  39896000   39896          1.0053586     -0.12665365     16.64349       1.5080232      21.10654       18.151513     -4.4630507      124923         145.23207      28.070421      28.070421     -0.32976843    -0.034146316   -0.016046212    0.028296715   -0.0024017055  -0.0066099012   77487.174      201.99183    
  39900000   39900          1.0027702     -0.12504041     16.646646      1.5041407      21.107359      18.150786     -4.4607132      125007.4       145.24177      28.080016      28.080016     -0.36519499     0.0091803407  -0.019106585   -0.006104481   -0.0046100787  -0.034505854    77496.043      194.22567    
  39904000   39904          0.99791964    -0.10990321     16.645394      1.4968649      21.105361      18.142258     -4.459967       125890.84      145.25147      28.068654      28.068654     -0.33763353    -0.0051408368   0.013064736    0.022554018   -0.020565283    0.034298181    77505.041      186.4596     
  39908000   39908          0.99822364    -0.097781008    16.638596      1.4973208      21.104717      18.135917     -4.4661207      126550.16      145.26117      28.064383      28.064383     -0.33224641     0.038703419    0.00019996237 -0.0413818     -0.018797978    0.017151785    77514.053      178.69332    
  39912000   39912          1.0030715     -0.17920071     16.646082      1.5045926      21.109216      18.150675     -4.4631344      125047.5       145.27087      28.070768      28.070768     -0.41440058    -0.054251235   -0.068950323   -0.05607253     0.040116264   -0.036298199    77523.043      170.92673    
  39916000   39916          0.99871605    -0.17340177     16.645393      1.4980595      21.111254      18.143452     -4.4658617      125797.4       145.28057      28.060073      28.060073     -0.46353732    -0.0089689158  -0.047699078    0.024401508   -0.020269411   -0.029144968    77531.89       163.1596     
  39920000   39920          0.99718832    -0.17404817     16.639424      1.4957679      21.106526      18.135192     -4.4671024      126653.66      145.29027      28.057444      28.057444     -0.41696319    -0.081224112   -0.023957225   -0.020895755   -0.027420386   -0.010353674    77540.843      155.39247    
  39924000   39924          0.99828523    -0.050469792    16.647875      1.4974132      21.108992      18.145289     -4.461117       125628.16      145.29997      28.055465      28.055465     -0.28422847     0.082623787    0.050195307   -0.020545218    0.0024415649   0.0095041048   77549.798      147.6251     
  39928000   39928          1.002718      -0.12981166     16.646262      1.5040623      21.107057      18.150325     -4.4607949      125121.67      145.30966      28.070727      28.070727     -0.32191518    -0.014973503   -0.052546282   -0.0085402905   0.052169552    0.04300096     77558.758      139.85751    
  39932000   39932          0.9949717     -0.16470139     16.646847      1.492443       21.108966      18.13929      -4.4621198      126262.32      145.31936      28.064778      28.064778     -0.42307572    -0.00055609736 -0.070472355    0.016126936   -0.0082305649  -0.021030907    77567.504      132.08931    
  39936000   39936          0.99986302    -0.16608241     16.63971       1.4997799      21.105946      18.13949      -4.4662362      126250.95      145.32906      28.062361      28.062361     -0.3903093     -0.05677953    -0.051158399    0.0051789838  -0.019475045    0.0028004578   77576.541      124.32138    
  39940000   39940          1.000748      -0.13143068     16.65067       1.5011074      21.10736       18.151777     -4.4566902      125001.38      145.33876      28.06701       28.06701      -0.3566028     -0.036036051   -0.0016531991   0.0017857687   0.0037162971  -0.034825311    77585.597      116.55323    
  39944000   39944          0.9968646     -0.083148012    16.647741      1.4952823      21.109194      18.143023     -4.4614536      125908.14      145.34846      28.050935      28.050935     -0.31010816     0.057241205    0.0034229187   0.002332723    0.01353968    -0.055304335    77594.553      108.78467    
  39948000   39948          0.9985498     -0.095153844    16.641138      1.4978101      21.107662      18.138948     -4.4665239      126335.56      145.35816      28.049709      28.049709     -0.34736288    -0.0093539907   0.071255337    0.0057388242   0.0042009202  -0.019439938    77603.526      101.0159     
  39952000   39952          0.99906126    -0.10539937     16.653074      1.4985773      21.108187      18.151651     -4.4551127      125042.86      145.36786      28.06484       28.06484      -0.28907409     0.0058735018  -0.032997519    0.027024251   -0.030426158    0.013481826    77612.664      93.247093    
  39956000   39956          0.99939622    -0.12006265     16.645461      1.4990797      21.108167      18.144541     -4.4627062      125781.37      145.37756      28.063859      28.063859     -0.37624902     0.062790668   -0.046729596   -0.014474266   -0.025676457    0.0042795181   77621.419      85.477586    
  39960000   39960          0.99883031    -0.13965566     16.644532      1.4982309      21.108025      18.142763     -4.4634935      125973.3       145.38726      28.058304      28.058304     -0.39839207     0.0032424375  -0.023817363   -0.0095065939  -0.0056861263   0.025982318    77630.527      77.708235    
  39964000   39964          1.0019069     -0.11983416     16.649631      1.5028457      21.108481      18.152477     -4.4588498      124987.12      145.39696      28.059051      28.059051     -0.32652731    -0.056097884    0.023122698   -0.021639168   -0.022264453    0.0086733487   77639.407      69.938411    
  39968000   39968          1.0030166     -0.11642554     16.644526      1.5045103      21.10958       18.149037     -4.4650537      125349.07      145.40665      28.052506      28.052506     -0.34716262    -0.033299692    0.031185695   -0.027085274   -0.013974325   -0.0022194831   77648.603      62.168617    
  39972000   39972          0.99936108    -0.13219271     16.648714      1.499027       21.109282      18.147741     -4.4605685      125491.72      145.41635      28.061047      28.061047     -0.41195451    -0.025501704    0.040878088    0.015399024   -0.013709536   -0.03129237     77657.493      54.398324    
  39976000   39976          1.000148      -0.13505302     16.645538      1.5002074      21.107537      18.145745     -4.4619988      125705.78      145.42605      28.054751      28.054751     -0.34599751    -0.027753552   -0.031408      -0.0085591524  -0.01153128    -0.047183037    77666.425      46.627832    
  39980000   39980          0.99842538    -0.1615677      16.642024      1.4976235      21.107835      18.139647     -4.4658115      126340.17      145.43575      28.051845      28.051845     -0.37941262    -0.06721251    -0.038077957    0.012185595   -0.046032725    0.0049826025   77675.384      38.857121    
  39984000   39984          0.99829038    -0.15877727     16.649268      1.497421       21.107586      18.146689     -4.4583178      125627.99      145.44545      28.071152      28.071152     -0.36614079    -0.065078472   -0.045112561    0.010800729    0.027022167   -0.0096976351   77684.357      31.086177    
  39988000   39988          0.99884103    -0.13744866     16.655877      1.4982469      21.110675      18.154124     -4.454798       124875.84      145.45515      28.060075      28.060075     -0.36866726    -0.0057740231  -0.037904693    0.0041130668  -0.037605219   -0.01178994     77693.354      23.315001    
  39992000   39992          1.0004381     -0.11752136     16.645545      1.5006424      21.106143      18.146188     -4.4605979      125698.74      145.46485      28.053291      28.053291     -0.37627631     0.012976121    0.010736098   -0.027139942    0.024399507    0.0034296477   77702.45       15.543599    
  39996000   39996          1.0022224     -0.108128       16.642565      1.503319       21.108284      18.145884     -4.4657185      125739.13      145.47455      28.046006      28.046006     -0.31932222    -0.013153133    0.0080913434  -0.037976517    0.00089862132 -0.048849014    77711.422      7.7719194    
  40000000   40000          0.99952967    -0.098469124    16.646885      1.4992799      21.107069      18.146165     -4.4601843      125720.02      145.48425      28.049712      28.049712     -0.37899319     0.050565875    0.033019945   -0.0096272859  -0.020442079   -0.024544664    77720.193      0            
Loop time of 77720.2 on 18 procs for 40000000 steps with 102500 atoms

Performance: 44467.207 tau/day, 514.667 timesteps/s
92.5% CPU use with 18 MPI tasks x 1 OpenMP threads

MPI task timing breakdown:
Section |  min time  |  avg time  |  max time  |%varavg| %total
---------------------------------------------------------------
Pair    | 9992.1     | 10337      | 11015      | 255.2 | 13.30
Bond    | 11481      | 11702      | 12191      | 135.2 | 15.06
Neigh   | 232.46     | 263.83     | 291.69     | 104.0 |  0.34
Comm    | 14059      | 14880      | 15334      | 204.1 | 19.15
Output  | 920.57     | 920.61     | 920.65     |   0.0 |  1.18
Modify  | 37334      | 37689      | 38126      | 122.8 | 48.49
Other   |            | 1928       |            |       |  2.48

Nlocal:        5694.44 ave        5723 max        5649 min
Histogram: 1 2 0 1 1 4 0 3 3 3
Nghost:        9987.61 ave       10056 max        9946 min
Histogram: 3 3 2 1 2 5 0 0 1 1
Neighs:              0 ave           0 max           0 min
Histogram: 18 0 0 0 0 0 0 0 0 0

Total # of neighbors = 0
Ave neighs/atom = 0
Ave special neighs/atom = 6.6262829
Neighbor list builds = 1331826
Dangerous builds = 0

# GENERATION RESTART
write_restart ./out.deform.restart
System init for write_restart ...
Generated 0 of 36 mixed pair_coeff terms from geometric mixing rule
write_data    ./out.deform.data pair ij
System init for write_data ...
Generated 0 of 36 mixed pair_coeff terms from geometric mixing rule
Total wall time: 21:35:22
