LAMMPS (15 Sep 2022)
OMP_NUM_THREADS environment is not set. Defaulting to 1 thread. (src/comm.cpp:98)
  using 1 OpenMP thread(s) per MPI task
# LAMMPS Script for deform
# Generated 12/17/2022

# INIT PARAMS & READ CONF
include   "/work_bgfs/h/harshad/simulation_9/neat_polymer/config_2/system.init"
# UNITS
units		lj
dimension	3
atom_style	bond

# INPUT FILE
pair_style	lj/cut 2.5
bond_style	fene
read_data /work_bgfs/h/harshad/simulation_9/neat_polymer/config_2/quiescent/thermal_replicates/1.npt.data
Reading data file ...
  orthogonal box = (-24.253317 -24.253317 -24.253317) to (24.253317 24.253317 24.253317)
  2 by 3 by 3 MPI processor grid
  reading atoms ...
  102500 atoms
  reading velocities ...
  102500 velocities
  scanning bonds ...
  2 = max bonds/atom
  reading bonds ...
  104500 bonds
Finding 1-2 1-3 1-4 neighbors ...
  special bond factors lj:    0        0        0       
  special bond factors coul:  0        0        0       
     4 = max # of 1-2 neighbors
     4 = max # of 1-3 neighbors
     8 = max # of 1-4 neighbors
    12 = max # of special neighbors
  special bonds CPU = 0.005 seconds
  read_data CPU = 0.596 seconds
include   "/work_bgfs/h/harshad/simulation_9/neat_polymer/config_2/system.settings"
# ATOM TYPE
mass  1  1.0 #backbone
mass  2  1.0 #endmer
mass  3  1.0 #crosslinker
mass  4  1.0 #outer shell
mass  5  1.0 #inner shell 2
mass  6  1.0 #inner-most shell
mass  7  1.0 #center bead
mass  8  1.0 #endmer post crosslinking
mass  9  1.0 #crosslinker post crosslinking

# BOND
bond_coeff * 30.0 1.50 1.0 1.0
special_bonds lj 0.0 1.0 1.0
Finding 1-2 1-3 1-4 neighbors ...
  special bond factors lj:    0        1        1       
  special bond factors coul:  0        0        0       
     4 = max # of 1-2 neighbors
     4 = max # of 1-3 neighbors
     8 = max # of 1-4 neighbors
    12 = max # of special neighbors
  special bonds CPU = 0.003 seconds

# PAIR
pair_coeff  1*9 1*9 1.0 1.0 2.5

pair_modify  shift yes
neigh_modify delay 1 check yes

# MAKE GROUPS
group polymer type 1 2 3 8 9
102500 atoms in group polymer
#group ins     type 1
#group strand  type 1 2 8
#group ends    type 2 8
#group xlinks  type 3 9
#group filler  type 4 5 6 7

# INPUTS FROM SBATCH
variable Temp          equal 1.0
variable gamma_total   equal 2.0
variable gamma_rate    equal 0.00005
variable dt            equal 0.001
variable Nfreq         equal 4000
variable Nrepeat_2     equal 100
variable Nevery_1      equal 1
variable Nrepeat_1     equal 1

variable Run           equal ${gamma_total}/${gamma_rate}/${dt}
variable Run           equal 2/${gamma_rate}/${dt}
variable Run           equal 2/5e-05/${dt}
variable Run           equal 2/5e-05/0.001

# RUN OPTIONS
run_style verlet
timestep  ${dt}
timestep  0.001

# RESTART
restart  ${Nfreq} cycle.1.restart cycle.2.restart
restart  4000 cycle.1.restart cycle.2.restart

## SAVE RESTARTS EVERY 10% EXTENSION
#variable RestFreq      equal 0.1/${gamma_rate}/${dt}
#restart  ${RestFreq} deform.*.restart
#
# COMPUTE ke/atom, pe/atom, pxx/atom, position and time-avg
compute     ke_atm          all     ke/atom
compute     p_atm           all     stress/atom NULL
compute     pe_atm          all     pe/atom
compute     ebond_atm       all     pe/atom bond
compute     posit_atm       all     property/atom x y z
fix         avg_ke_atm_1    all     ave/atom ${Nevery_1} ${Nrepeat_1} ${Nfreq} c_ke_atm
fix         avg_ke_atm_1    all     ave/atom 1 ${Nrepeat_1} ${Nfreq} c_ke_atm
fix         avg_ke_atm_1    all     ave/atom 1 1 ${Nfreq} c_ke_atm
fix         avg_ke_atm_1    all     ave/atom 1 1 4000 c_ke_atm
fix         avg_pxx_atm_1   all     ave/atom ${Nevery_1} ${Nrepeat_1} ${Nfreq} c_p_atm[*]
fix         avg_pxx_atm_1   all     ave/atom 1 ${Nrepeat_1} ${Nfreq} c_p_atm[*]
fix         avg_pxx_atm_1   all     ave/atom 1 1 ${Nfreq} c_p_atm[*]
fix         avg_pxx_atm_1   all     ave/atom 1 1 4000 c_p_atm[*]
fix         avg_pe_atm_1    all     ave/atom ${Nevery_1} ${Nrepeat_1} ${Nfreq} c_pe_atm
fix         avg_pe_atm_1    all     ave/atom 1 ${Nrepeat_1} ${Nfreq} c_pe_atm
fix         avg_pe_atm_1    all     ave/atom 1 1 ${Nfreq} c_pe_atm
fix         avg_pe_atm_1    all     ave/atom 1 1 4000 c_pe_atm
#fix         avg_posit_atm_1 all     ave/atom ${Nevery_1} ${Nrepeat_1} ${Nfreq} c_posit_atm[1] c_posit_atm[2] c_posit_atm[3]
dump        dump_1 all custom ${Nfreq} ${out_dir}traj.${Nevery_1}_${Nrepeat_1}_${Nfreq}.xyz mol type x y z f_avg_ke_atm_1 f_avg_pe_atm_1 f_avg_pxx_atm_1[*]
dump        dump_1 all custom 4000 ${out_dir}traj.${Nevery_1}_${Nrepeat_1}_${Nfreq}.xyz mol type x y z f_avg_ke_atm_1 f_avg_pe_atm_1 f_avg_pxx_atm_1[*]
dump        dump_1 all custom 4000 /shares_bgfs/dssimmons_data/harshad/deform/neat_polymer/config_2/1_deformwork_bgfs--h--harshad--simulation_9--neat_polymer--config_2--1_deform--traj.${Nevery_1}_${Nrepeat_1}_${Nfreq}.xyz mol type x y z f_avg_ke_atm_1 f_avg_pe_atm_1 f_avg_pxx_atm_1[*]
dump        dump_1 all custom 4000 /shares_bgfs/dssimmons_data/harshad/deform/neat_polymer/config_2/1_deformwork_bgfs--h--harshad--simulation_9--neat_polymer--config_2--1_deform--traj.1_${Nrepeat_1}_${Nfreq}.xyz mol type x y z f_avg_ke_atm_1 f_avg_pe_atm_1 f_avg_pxx_atm_1[*]
dump        dump_1 all custom 4000 /shares_bgfs/dssimmons_data/harshad/deform/neat_polymer/config_2/1_deformwork_bgfs--h--harshad--simulation_9--neat_polymer--config_2--1_deform--traj.1_1_${Nfreq}.xyz mol type x y z f_avg_ke_atm_1 f_avg_pe_atm_1 f_avg_pxx_atm_1[*]
dump        dump_1 all custom 4000 /shares_bgfs/dssimmons_data/harshad/deform/neat_polymer/config_2/1_deformwork_bgfs--h--harshad--simulation_9--neat_polymer--config_2--1_deform--traj.1_1_4000.xyz mol type x y z f_avg_ke_atm_1 f_avg_pe_atm_1 f_avg_pxx_atm_1[*]
dump_modify dump_1 append yes sort id

# COMPUTE a separate pe and ke for each group, AVG & SAVE
compute   pe_polymer    all reduce  sum c_pe_atm
compute   ke_polymer    all reduce  sum c_ke_atm
compute   ebond_polymer all reduce  sum c_ebond_atm
compute   pxx_polymer   all reduce  sum c_p_atm[1] c_p_atm[2] c_p_atm[3]
compute   pxy_polymer   all reduce  sum c_p_atm[4] c_p_atm[5] c_p_atm[6]
fix 		  avgEnergy     all     ave/time ${Nevery_1} ${Nrepeat_2} ${Nfreq} c_pe_polymer c_ke_polymer c_ebond_polymer c_pxy_polymer[1] c_pxy_polymer[2] c_pxy_polymer[3] file energy.avg.csv
fix 		  avgEnergy     all     ave/time 1 ${Nrepeat_2} ${Nfreq} c_pe_polymer c_ke_polymer c_ebond_polymer c_pxy_polymer[1] c_pxy_polymer[2] c_pxy_polymer[3] file energy.avg.csv
fix 		  avgEnergy     all     ave/time 1 100 ${Nfreq} c_pe_polymer c_ke_polymer c_ebond_polymer c_pxy_polymer[1] c_pxy_polymer[2] c_pxy_polymer[3] file energy.avg.csv
fix 		  avgEnergy     all     ave/time 1 100 4000 c_pe_polymer c_ke_polymer c_ebond_polymer c_pxy_polymer[1] c_pxy_polymer[2] c_pxy_polymer[3] file energy.avg.csv
fix       avgPxx_all    all     ave/time ${Nevery_1} ${Nfreq} ${Nfreq}     c_pxx_polymer[1] c_pxx_polymer[2] c_pxx_polymer[3]                                           file pxx.all.avg.csv
fix       avgPxx_all    all     ave/time 1 ${Nfreq} ${Nfreq}     c_pxx_polymer[1] c_pxx_polymer[2] c_pxx_polymer[3]                                           file pxx.all.avg.csv
fix       avgPxx_all    all     ave/time 1 4000 ${Nfreq}     c_pxx_polymer[1] c_pxx_polymer[2] c_pxx_polymer[3]                                           file pxx.all.avg.csv
fix       avgPxx_all    all     ave/time 1 4000 4000     c_pxx_polymer[1] c_pxx_polymer[2] c_pxx_polymer[3]                                           file pxx.all.avg.csv

# TIME-AVG Ly
variable Ly equal ly
fix       avgLy         all     ave/time ${Nevery_1} ${Nfreq} ${Nfreq}     v_Ly  file Ly.avg.csv
fix       avgLy         all     ave/time 1 ${Nfreq} ${Nfreq}     v_Ly  file Ly.avg.csv
fix       avgLy         all     ave/time 1 4000 ${Nfreq}     v_Ly  file Ly.avg.csv
fix       avgLy         all     ave/time 1 4000 4000     v_Ly  file Ly.avg.csv

# SIMULATION FIXES
fix  npt        all npt temp ${Temp} ${Temp} 2.0 y 0 0 5 z 0 0 5 couple yz
fix  npt        all npt temp 1 ${Temp} 2.0 y 0 0 5 z 0 0 5 couple yz
fix  npt        all npt temp 1 1 2.0 y 0 0 5 z 0 0 5 couple yz
fix  mom        all momentum 10000 linear 1 1 1
fix  deform     all deform 1 x erate ${gamma_rate} remap x units box
fix  deform     all deform 1 x erate 5e-05 remap x units box

# THERMO
variable  thermo_frq equal ${Nfreq}
variable  thermo_frq equal 4000
thermo    ${thermo_frq}
thermo    4000
thermo_style  custom step time temp press pe ke ebond etotal epair ecouple lx ly lz pxx pyy pzz pxy pxz pyz cpu cpuremain

# deform
run ${Run}
run 40000000
Generated 0 of 36 mixed pair_coeff terms from geometric mixing rule
Neighbor list info ...
  update: every = 1 steps, delay = 1 steps, check = yes
  max neighbors/atom: 2000, page size: 100000
  master list distance cutoff = 2.8
  ghost atom cutoff = 2.8
  binsize = 1.4, bins = 35 35 35
  1 neighbor lists, perpetual/occasional/extra = 1 0 0
  (1) pair lj/cut, perpetual
      attributes: half, newton on
      pair build: half/bin/newton
      stencil: half/bin/3d
      bin: standard
WARNING: Inconsistent image flags (src/domain.cpp:819)
Per MPI rank memory allocation (min/avg/max) = 12.76 | 12.77 | 12.78 Mbytes
   Step          Time           Temp          Press          PotEng         KinEng         E_bond         TotEng         E_pair        Ecouple           Lx             Ly             Lz            Pxx            Pyy            Pzz            Pxy            Pxz            Pyz            CPU          CPULeft    
         0   0              0.9990406      0.010398701    16.632857      1.4985463      21.104652      18.131403     -4.4717947      0              48.506633      48.506633      48.506633      0.002242942   -0.0014191166   0.030372276    0.039846355    0.010114131    0.026214689    0              0            
      4000   4              1.0029002      0.025677259    16.63306       1.5043356      21.105058      18.137395     -4.4719985     -593.89803      48.516335      48.493958      48.493958      0.043818335    0.075510321   -0.042296878    0.026072883    0.027067281   -0.070700216    36.492122      364884.74    
      8000   8              1.0034302     -0.018659655    16.640993      1.5051306      21.107699      18.146124     -4.4667061     -1468.2737      48.526036      48.513564      48.513564     -0.060504311    0.029914909   -0.025389562   -0.020267894    0.0026826325   0.023765319    73.255644      366204.97    
     12000   12             1.0004941     -0.025539633    16.632171      1.5007266      21.104708      18.132898     -4.4725369     -92.169324      48.535737      48.497878      48.497878     -0.059550625   -0.018258389    0.0011901153  -0.018297979    0.042829132   -0.05046756     110.49772      368215.25    
     16000   16             1.0026077     -0.02028296     16.63364       1.5038968      21.106534      18.137537     -4.4728933     -546.87334      48.545439      48.477548      48.477548      0.021335041   -0.0094325311  -0.072751391    0.026531858    0.023383333    0.0018688322   147.65054      368978.7     
     20000   20             1.0001758     -0.021707842    16.62473       1.5002491      21.10622       18.124979     -4.4814901      760.60137      48.55514       48.447789      48.447789     -0.028866552   -0.052460696    0.016203722    0.0090809852   0.04153081    -0.021272978    184.58069      368976.81    
     24000   24             0.9995073      0.023972988    16.627057      1.4992463      21.105562      18.126304     -4.4785042      645.40895      48.564841      48.451393      48.451393     -0.019891221    0.048788257    0.043021929   -0.012940665    0.015622598   -0.019856636    221.5974       369107.4     
     28000   28             1.0029691     -0.037375874    16.630503      1.5044389      21.102873      18.134942     -4.47237       -219.3884       48.574543      48.482939      48.482939     -0.015718164   -0.11825716     0.0218477      0.0080671072  -0.013636152    0.021525349    258.41029      368899.15    
     32000   32             1.0010346     -0.026232307    16.638213      1.5015372      21.106914      18.139751     -4.4687003     -691.17548      48.584244      48.490192      48.490192     -0.052908391    0.012196313   -0.037984842    0.014694412    0.0028738848   0.021154606    295.22121      368731.3     
     36000   36             0.99590868     0.0063605609   16.632483      1.4938484      21.106253      18.126331     -4.4737703      704.5701       48.593945      48.454602      48.454602      0.0032017916   0.013796927    0.002082964    0.0093793803  -0.016710636    0.02702374     332.30741      368898.15    
     40000   40             1.000557       0.032781917    16.630203      1.5008208      21.104361      18.131024     -4.4741583      243.89811      48.603647      48.447237      48.447237      0.058681883   -0.0058990604   0.045562929   -0.024129628   -0.0022908023   0.0080861519   369.4685       369099.03    
     44000   44             1.0010248      0.045104537    16.635764      1.5015225      21.111267      18.137287     -4.4755029     -377.15114      48.613348      48.456864      48.456864      0.0068504171   0.11088898     0.017574211    0.046421847    0.00027533897 -0.011969628    406.63831      369264.56    
     48000   48             0.99983369     0.092542472    16.634328      1.4997359      21.107283      18.134064     -4.4729547     -26.12084       48.623049      48.426071      48.426071      0.11378874     0.091791213    0.072047459   -0.0023486024  -0.013422414    0.040926272    443.95365      369517.43    
     52000   52             1.0011789      0.00011937868  16.624834      1.5017538      21.106245      18.126587     -4.4814116      760.69504      48.632751      48.416747      48.416747      0.026800525    0.012680357   -0.039122746    3.6099053e-05  0.068776395    0.024986325    480.9251       369461.46    
     56000   56             0.99934154    -0.030004739    16.642588      1.4989977      21.10733       18.141585     -4.4647428     -755.7622       48.642452      48.474521      48.474521     -0.059232598   -0.044036639    0.013255018    0.011142784   -0.034649483    0.015518141    518.15112      369589.79    
     60000   60             1.0009754     -0.0020417627   16.636066      1.5014485      21.104115      18.137515     -4.4680484     -318.27484      48.652153      48.450255      48.450255     -0.0163807      0.016260807   -0.006005395    0.019092599   -0.026963557    0.009228717    555.39356      369706.98    
     64000   64             0.99983443     0.0121053      16.636102      1.499737       21.107533      18.135839     -4.4714312     -125.92308      48.661855      48.434789      48.434789      0.012812707    0.035135528   -0.011632336   -0.0017010966  -0.0058036782  -0.020385232    592.31587      369605.1     
     68000   68             1.0047433      0.012956454    16.636647      1.5071003      21.11044       18.143747     -4.4737929     -915.65915      48.671556      48.439042      48.439042     -0.0041640693  -0.0060633083   0.049096741    0.038492685   -0.034420871    0.046371856    629.1079       369434.36    
     72000   72             1.0028629      0.019563579    16.629703      1.5042797      21.105647      18.133983     -4.4759438      105.46166      48.681257      48.427183      48.427183      0.067777114   -0.022548583    0.013462206    0.0093676707  -0.058550456    0.029481686    666.3231       369513.18    
     76000   76             0.99817104    -0.10880653     16.632743      1.497242       21.107985      18.129985     -4.4752423      535.95023      48.690959      48.430558      48.430558     -0.13264523    -0.031073893   -0.16270046     0.0070986954  -5.271318e-07   0.0020543169   704.15062      369901.44    
     80000   80             1.0034296      0.0081222593   16.630048      1.5051297      21.105065      18.135178     -4.4750168      23.815731      48.70066       48.409106      48.409106     -0.0038860137  -1.5063489e-05  0.028267855    0.017354058    0.0073833647  -0.035388186    741.63136      370074.05    
     84000   84             1.0007461      0.026298614    16.633676      1.5011045      21.105855      18.134781     -4.4721788      85.087064      48.710361      48.415136      48.415136     -0.027839405    0.058079558    0.04865569    -0.029799089   -0.0098044817   0.017834022    778.1594       369773.94    
     88000   88             1.0010335      0.023113568    16.636822      1.5015356      21.10991       18.138357     -4.4730885     -260.67715      48.720063      48.414608      48.414608      0.066861541    0.012018622   -0.0095394591  -0.015983607   -0.039827055    0.031581377    814.94009      369612.37    
     92000   92             1.0011046     -0.0027911124   16.644356      1.5016422      21.107041      18.145999     -4.4626849     -1023.1272      48.729764      48.434104      48.434104     -0.0030930181  -0.01081827     0.0055379511  -0.0088559075  -0.002772511   -0.0075868577   851.66356      369436.84    
     96000   96             0.99664705    -0.043974241    16.636592      1.494956       21.106812      18.131548     -4.4702194      478.32227      48.739465      48.411564      48.411564     -0.086592617   -0.046038862    0.00070875608 -0.005991814    0.054289466    0.0071245486   888.95785      369510.15    
    100000   100            1.0006157     -0.010034705    16.630451      1.5009089      21.108199      18.13136      -4.4777477      517.96238      48.749167      48.396906      48.396906     -0.040986809   -0.027987407    0.038870101    0.012243529    0.011663117    0.0027658557   926.08071      369506.21    
    104000   104            0.9974735      0.031171778    16.64621       1.4961957      21.111239      18.142406     -4.4650292     -593.61378      48.758868      48.423459      48.423459      0.056886788    0.008719519    0.027909026   -0.0058699599   0.050393964    0.031212574    963.22432      369507.67    
    108000   108            1.0032307     -0.011596362    16.642393      1.5048314      21.110303      18.147224     -4.46791       -1067.1739      48.768569      48.414348      48.414348     -0.036889194    0.012195214   -0.010095105   -0.0022705959   0.012148023    0.013335249    1000.4315      369529.74    
    112000   112            0.99827887     0.0017250252   16.637137      1.4974037      21.10731       18.134541     -4.4701729      252.91226      48.778271      48.407694      48.407694      0.0165831     -0.027884648    0.016476624    0.011249269   -0.012416432    0.010889034    1037.2304      369402.19    
    116000   116            0.99824749    -0.020473306    16.640545      1.4973566      21.10596       18.137902     -4.4654152     -71.097829      48.787972      48.40107       48.40107       0.015718108   -0.0065171847  -0.070620842   -0.011213751    0.0096396935  -0.0073395364   1073.6274      369142.7     
    120000   120            1.0022318      0.039560556    16.640694      1.503333       21.104598      18.144027     -4.4639031     -678.54282      48.797673      48.38659       48.38659       0.056056098    0.037225908    0.025399662   -0.013131121    0.056279365    0.022658051    1112.0129      369558.94    
    124000   124            1.0005313     -0.051645197    16.629628      1.5007823      21.106388      18.130411     -4.4767592      737.45381      48.807375      48.345315      48.345315     -0.054299737    0.0069766011  -0.10761246    -0.0059644101  -0.04038185     0.022289798    1149.2831      369587.2     
    128000   128            1.0014691      0.013877909    16.631885      1.502189       21.109451      18.134074     -4.4775659      382.51214      48.817076      48.342519      48.342519      0.013545295   -0.026493888    0.054582318    0.0074752753  -0.039685393    0.017515062    1186.4512      369579.56    
    132000   132            0.99960527     0.023481692    16.646325      1.4993933      21.109319      18.145719     -4.4629942     -790.47326      48.826777      48.384461      48.384461      0.027563064    0.05233166    -0.009449647    0.009481529    0.029256655    0.012592093    1223.3293      369482.53    
    136000   136            0.99592912    -0.015175633    16.635898      1.4938791      21.105775      18.129777     -4.4698769      863.90944      48.836479      48.377804      48.377804     -0.045270086    0.021512674   -0.021769487    0.013870088   -0.049369474   -0.022508815    1260.4993      369474.58    
    140000   140            0.99729843    -0.078756115    16.636758      1.4959331      21.105441      18.132691     -4.4686827      585.94112      48.84618       48.374027      48.374027     -0.070565866   -0.057092885   -0.10860959    -0.0082360754  -0.023437474    0.0013310867   1297.9516      369545.36    
    144000   144            0.99835771    -0.053153692    16.645178      1.497522       21.107689      18.1427       -4.4625108     -419.46208      48.855881      48.380041      48.380041     -0.0021981767  -0.1160475     -0.041215398    0.0096861233   0.036636499    0.0067334547   1334.5902      369384.92    
    148000   148            0.99839021    -0.016189681    16.640184      1.4975707      21.106921      18.137755     -4.4667367      107.9499       48.865583      48.364325      48.364325     -0.056956986   -0.024469125    0.03285707     0.026190833   -0.051342465   -0.017316822    1371.7767      369378.69    
    152000   152            0.99803468     0.021020064    16.632911      1.4970374      21.106983      18.129948     -4.4740728      928.78461      48.875284      48.322586      48.322586      0.028814977    0.021797172    0.012448044   -0.0074764203  -0.0020165874  -0.015354628    1408.875       369347.71    
    156000   156            1.0004725      0.019926553    16.634763      1.5006941      21.108698      18.135457     -4.4739348      384.22156      48.884985      48.317244      48.317244     -0.0041510422   0.041044298    0.022886405   -0.0048512226  -0.026248101    0.04180159     1445.9764      369317.2     
    160000   160            0.99954019    -0.0025393561   16.638571      1.4992957      21.108406      18.137867     -4.4698348      157.40941      48.894687      48.32646       48.32646       0.035521179   -0.027042783   -0.016096465   -0.034633743    0.050598875   -0.019226129    1483.004       369267.99    
    164000   164            0.99558051    -0.041604767    16.631938      1.4933562      21.104509      18.125294     -4.4725709      1466.2993      48.904388      48.316846      48.316846     -0.062754432    0.013334779   -0.075394647    0.026440706    0.06754996    -0.014355133    1520.0224      369217.15    
    168000   168            0.99989535    -0.012827441    16.633174      1.4998284      21.108598      18.133002     -4.4754243      696.99886      48.914089      48.298979      48.298979     -0.075241388    0.048803451   -0.012044386   -0.0027441065  -0.037402737    0.034453961    1557.0745      369174.95    
    172000   172            0.9974497      0.033426481    16.640622      1.4961599      21.106921      18.136782     -4.4662988      329.93393      48.923791      48.31226       48.31226       0.030150857    0.031715874    0.038412712    0.01434296     0.017067937   -0.025643495    1594.9893      369332.76    
    176000   176            1.0047276      0.02251684     16.634578      1.5070767      21.107074      18.141655     -4.4724959     -148.9475       48.933492      48.282664      48.282664      0.013626643    0.070896158   -0.016972281    0.033451299   -0.0086923772  -0.056640909    1631.756       369221.87    
    180000   180            1.0006802      0.019152173    16.630816      1.5010057      21.105639      18.131822     -4.4748228      879.33144      48.943193      48.285522      48.285522      0.06613516     0.0084719362  -0.017150577   -0.016356004    0.0027034753  -0.0041515016   1668.9789      369215.21    
    184000   184            1.002913      -0.00090242436  16.626903      1.5043548      21.10484       18.131258     -4.4779365      957.6753       48.952895      48.271645      48.271645     -0.039298323    0.048791022   -0.012199972    0.022973198   -0.0086997217  -0.0009076077   1706.5489      369282.34    
    188000   188            1.002467       0.030858359    16.640381      1.5036858      21.108465      18.144067     -4.468084      -334.59195      48.962596      48.283308      48.283308      0.025874804    0.015909583    0.050790691    0.0099483352   0.037381418   -0.0057655953   1744.856       369501.1     
    192000   192            0.99853062     0.015795151    16.635659      1.4977813      21.10706       18.133441     -4.4714003      774.85473      48.972297      48.278984      48.278984     -0.032078832    0.075765959    0.0036983271   0.00090955626 -0.020778636   -0.0010410452   1783.1601      369708.52    
    196000   196            0.99869785    -0.012711897    16.632959      1.4980322      21.107428      18.130991     -4.4744691      1046.2107      48.981998      48.261488      48.261488      0.00083730984 -0.02170156    -0.017271441    0.01144122    -0.0038586678   0.0084392178   1820.6795      369746.56    
    200000   200            1.0012961     -0.018142003    16.638689      1.5019295      21.108998      18.140618     -4.4703092      79.941135      48.9917        48.283724      48.283724     -0.073344502    0.025030696   -0.0061122022  -0.017944082    0.025307159   -0.017338622    1858.0419      369750.33    
    204000   204            0.99779693     0.017062108    16.644287      1.4966808      21.108014      18.140967     -4.463727       64.397447      49.001401      48.298841      48.298841      0.044652438   -0.012633214    0.019167099    0.014834084   -0.037985916    0.01972008     1895.3932      369750.34    
    208000   208            0.99855561     0.022061972    16.637557      1.4978188      21.106909      18.135376     -4.4693517      657.88851      49.011102      48.263911      48.263911     -0.046030189    0.0083480977   0.10386801    -0.024418155    0.019975153   -0.027876536    1933.0851      369814.06    
    212000   212            0.99948279    -0.028712179    16.634233      1.4992096      21.103408      18.133443     -4.4691746      876.40909      49.020804      48.273953      48.273953     -0.038117872   -0.008905698   -0.039112966    0.02567962     0.026744995    0.017005925    1970.3602      369795.72    
    216000   216            1.000717       0.0010846539   16.644338      1.5010608      21.108535      18.145399     -4.464197      -328.76969      49.030505      48.285069      48.285069      0.058183296   -0.016633644   -0.03829569     0.013028578   -0.014568431    0.010583247    2007.9521      369835.03    
    220000   220            0.99860919    -0.042076891    16.635745      1.4978992      21.10182       18.133644     -4.4660748      896.3985       49.040206      48.285898      48.285898     -0.060283177   -0.013829655   -0.052117842    0.025293359   -0.033914775    0.010865911    2045.0095      369774.91    
    224000   224            0.99982214    -0.050495235    16.638583      1.4997186      21.106772      18.138301     -4.4681895      439.72698      49.049908      48.269942      48.269942     -0.026159891   -0.096182683   -0.029143131   -0.031847251    0.0011166468   0.0072851638   2081.8701      369680.64    
    228000   228            1.0009207     -0.0082915499   16.640353      1.5013665      21.107223      18.141719     -4.4668706      110.06379      49.059609      48.267237      48.267237      0.0012544681   0.014039363   -0.04016848    -0.020003359    0.0020329077  -0.0044233123   2118.9768      369631.34    
    232000   232            1.0028514      0.011451611    16.629569      1.5042624      21.103945      18.133832     -4.4743758      938.46981      49.06931       48.22599       48.22599      -0.0041401258   0.0076950163   0.030799943    0.0050265729  -0.0072823672  -0.015563076    2155.8209      369537.43    
    236000   236            0.99868382     0.041845837    16.627721      1.4980111      21.102679      18.125732     -4.474958       1788.7235      49.079012      48.220282      48.220282     -0.0053764002   0.061856787    0.069057124   -0.048987831   -0.030887069   -0.012538846    2192.9449      369492.64    
    240000   240            1.0010795     -0.015117049    16.635857      1.5016046      21.106733      18.137461     -4.4708767      607.31424      49.088713      48.229712      48.229712     -0.018524858   -0.030314681    0.003488391    0.01176747    -0.016622329   -0.0095754115   2230.088       369451.25    
    244000   244            1.0011386      0.047718045    16.640638      1.5016933      21.106925      18.142331     -4.4662875      128.79234      49.098414      48.233575      48.233575      0.018536806    0.040609776    0.084007554    0.018747724   -0.064104176   -0.050562062    2267.2952      369420.45    
    248000   248            0.99644721    -0.055878039    16.633573      1.4946562      21.102539      18.128229     -4.4689664      1594.4178      49.108116      48.250099      48.250099     -0.074769076   -0.059876581   -0.032988459    0.025449675    0.026203049   -0.030582594    2304.4795      369385.76    
    252000   252            0.99736203    -0.08335938     16.637846      1.4960284      21.107727      18.133874     -4.4698808      1036.3728      49.117817      48.238593      48.238593     -0.10164147    -0.062787021   -0.085649648    0.041301904   -0.011804249    0.0065390087   2341.7496      369364.54    
    256000   256            1.0011738      0.0073310745   16.645402      1.501746       21.110142      18.147148     -4.4647393     -303.95971      49.127518      48.220169      48.220169      0.03908573    -0.0097459287  -0.0073465777  -0.022040824   -0.0029031303  -0.020035491    2378.7072      369294.3     
    260000   260            1.0021113     -0.00068796871  16.648736      1.5031523      21.109707      18.151888     -4.4609717     -769.35732      49.13722       48.245426      48.245426      0.033656224    0.0095162777  -0.045236408   -0.016712656   -0.0061890875  -0.037359687    2417.3973      369489.88    
    264000   264            0.99962936    -0.047254829    16.635898      1.4994294      21.105774      18.135327     -4.4698763      948.46898      49.146921      48.216998      48.216998     -0.052245141   -0.052113435   -0.037405911    0.0019584278  -0.01618899    -0.051225065    2454.2871      369407.4     
    268000   268            0.99846872     0.012809335    16.630674      1.4976885      21.105296      18.128363     -4.4746223      1682.5214      49.156622      48.181016      48.181016      0.037896951   -0.011071265    0.011602317   -0.020445454    0.039367486    0.019066376    2491.2381      369335.35    
    272000   272            1.0026238      0.02344041     16.638293      1.503921       21.103804      18.142214     -4.4655116      282.69489      49.166324      48.212957      48.212957      0.029861978    0.011914068    0.028545184   -0.00034040697  0.053808576   -0.049875926    2528.3855      369293.02    
    276000   276            1.0000104     -0.013336497    16.640741      1.5000009      21.106567      18.140742     -4.4658254      453.87954      49.176025      48.222449      48.222449     -0.018229101    0.013072434   -0.034852823   -0.0025528087  -0.0035189126  -0.037723243    2565.3241      369220.77    
    280000   280            0.99410327     0.010298935    16.64079       1.4911404      21.10389       18.13193      -4.4631003      1377.1898      49.185726      48.219701      48.219701      0.010484139    0.036216957   -0.01580429    -0.030043008   -0.0082175354  -0.014631513    2601.8988      369097.93    
    284000   284            0.99914133     0.037750678    16.634968      1.4986974      21.104283      18.133666     -4.4693151      1219.744       49.195428      48.178926      48.178926      0.028793238    0.057941551    0.026517244    0.043798901    0.041449059   -0.039964888    2639.3552      369100.82    
    288000   288            0.99846415    -0.018061853    16.641414      1.4976816      21.105891      18.139096     -4.4644772      683.47086      49.205129      48.200994      48.200994     -0.055716778   -0.018368663    0.019899882    0.0081173428   0.047788053   -0.042271359    2676.2036      369018.74    
    292000   292            0.99911833    -0.031443604    16.644549      1.4986629      21.10835       18.143212     -4.463801       281.8778       49.21483       48.211568      48.211568     -0.019101265   -0.04185324    -0.033376309    0.02197427    -0.015258076    0.058553861    2713.2043      368958.62    
    296000   296            0.99627062    -0.023074683    16.637544      1.4943914      21.104361      18.131935     -4.4668173      1457.6943      49.224532      48.193347      48.193347     -0.050756244    0.015549719   -0.034017524    0.042381236   -0.00012403001 -0.018387228    2749.9822      368869.24    
    300000   300            0.99801133     0.0065951388   16.636724      1.4970024      21.110094      18.133726     -4.4733699      1294.6825      49.234233      48.158329      48.158329      0.01569227     0.01930868    -0.015215533    0.039560713   -0.034362038   -0.038481976    2786.9778      368810.07    
    304000   304            0.99508927    -0.038349674    16.632258      1.4926193      21.105911      18.124877     -4.473653       2221.8842      49.243934      48.150263      48.150263     -0.10124653    -0.00058525009 -0.013217237   -0.05182454     0.043411097    0.048919262    2824.3461      368800.14    
    308000   308            0.99974887    -0.03041573     16.6328        1.4996087      21.106038      18.132409     -4.4732375      1470.2825      49.253636      48.142671      48.142671     -0.020844045   -0.005533555   -0.064869591   -0.01299997    -0.012326193    0.0061961177   2862.1263      368842.59    
    312000   312            1.0030531     -0.0029779005   16.638009      1.504565       21.104267      18.142574     -4.466258       449.33482      49.263337      48.156201      48.156201      0.015495015    0.020398924   -0.04482764    -0.0095536559  -0.039580562    0.027490075    2899.5103      368832.58    
    316000   316            1.0014809     -0.0056260299   16.629307      1.5022066      21.103806      18.131513     -4.4744991      1603.2224      49.273038      48.134062      48.134062      0.033230761   -0.0062346086  -0.043874242    0.016710443    0.023607058    0.033118522    2936.8812      368820.23    
    320000   320            1.0019552      0.0044022611   16.628031      1.5029181      21.107041      18.130949     -4.4790097      1681.5592      49.28274       48.110711      48.110711      0.014293944    0.014703998   -0.015791158   -0.00019162273 -0.019329466    0.0018250818   2974.1915      368799.75    
    324000   324            1.0026754      0.10537861     16.637348      1.5039984      21.109487      18.141346     -4.4721398      636.71196      49.292441      48.105324      48.105324      0.071055507    0.12531989     0.11976044    -0.00063224808  0.00029892009  0.0092550234   3011.227       368745.19    
    328000   328            1.0012619      0.043894804    16.628796      1.5018781      21.103487      18.130674     -4.4746913      1750.8059      49.302142      48.104523      48.104523      0.040482851    0.062906469    0.028295092    0.032757893   -0.0056936963  -0.026806143    3049.3789      368826.09    
    332000   332            1.0000486      0.015064166    16.629913      1.5000582      21.106131      18.129971     -4.4762182      1843.0457      49.311844      48.098947      48.098947     -0.044611376    0.10002034    -0.010216468   -0.011832262    0.01671431     0.025870392    3087.2512      368870.73    
    336000   336            1.001957       0.038325253    16.638457      1.5029208      21.107232      18.141378     -4.4687753      694.68395      49.321545      48.118773      48.118773      0.034362067    0.015429931    0.065183762   -0.045410148    0.034988707   -0.019731808    3123.5261      368724.82    
    340000   340            1.0026004     -0.036265756    16.629104      1.5038859      21.106712      18.13299      -4.4776079      1574.6885      49.331246      48.092331      48.092331     -0.012533328   -0.017129864   -0.079134076   -0.065822306   -0.037208769   -0.0060194542   3160.2872      368638.21    
    344000   344            0.99664304     0.051229514    16.633115      1.49495        21.104794      18.128065     -4.4716794      2099.2498      49.340948      48.089608      48.089608      0.042443738    0.10273371     0.0085110912   0.084045891   -0.042276903   -0.0065815497   3197.0871      368557.23    
    348000   348            1.001311      -0.031020438    16.635064      1.5019518      21.106293      18.137016     -4.4712289      1202.3371      49.350649      48.118508      48.118508     -0.021321654   -0.046700288   -0.025039372    0.0018242388  -0.037309901    0.0043259798   3233.9792      368487.76    
    352000   352            1.0019804      0.056471493    16.640409      1.5029559      21.1044        18.143365     -4.4639907      572.00806      49.36035       48.117713      48.117713      0.047221944    0.059111896    0.063080638   -0.013370684   -0.011154424    0.0055747832   3270.3073      368355.52    
    356000   356            1.0006307      0.045714206    16.636571      1.5009314      21.103413      18.137503     -4.4668418      1193.2658      49.370052      48.10137       48.10137       0.047044697    0.059859779    0.030238143    0.017393553   -0.024545311   -0.014601781    3306.3143      368189.68    
    360000   360            0.9987722     -0.0071353896   16.631365      1.4981437      21.104833      18.129509     -4.4734682      2033.0207      49.379753      48.081686      48.081686      0.021029226   -0.014600006   -0.027835389    0.0032603899   0.0074002882  -0.01452199     3342.1173      368004.25    
    364000   364            1.0009298     -0.014289914    16.642158      1.50138        21.103898      18.143538     -4.4617398      615.09924      49.389454      48.101434      48.101434      0.039071342   -0.023374734   -0.05856635     0.015167784   -0.0098876895   0.019771776    3378.4277      367877.36    
    368000   368            0.99891104    -0.023467342    16.637954      1.4983519      21.10702       18.136306     -4.4690666      1376.7104      49.399156      48.082286      48.082286     -0.098437338    0.072536762   -0.044501451    0.011413809   -0.014596184    0.020920235    3414.7296      367751.53    
    372000   372            0.99919984     0.0087139255   16.631861      1.4987851      21.106302      18.130646     -4.4744418      1977.266       49.408857      48.059236      48.059236     -0.0084860423   0.0077122661   0.026915553   -0.018672645    0.03251016     0.06246333     3451.1282      367637.92    
    376000   376            1.0030397     -0.02596575     16.635744      1.5045448      21.107407      18.140289     -4.4716636      1009.3915      49.418558      48.073576      48.073576     -0.057309186   -0.029440585    0.0088525191  -0.012536335    0.010393917   -0.022773328    3487.378       367510.28    
    380000   380            1.0018693     -0.0052935834   16.63615       1.5027892      21.107397      18.13894      -4.471247       1167.7359      49.42826       48.048012      48.048012     -0.01746514    -0.038537137    0.040121527   -0.0092838565   0.0711885     -0.033011563    3523.8666      367409.46    
    384000   384            0.99928        0.033308386    16.635403      1.4989054      21.10658       18.134308     -4.471177       1662.6689      49.437961      48.038674      48.038674      0.087313507    0.029049684   -0.016438032   -0.0010632008   0.059676644   -0.02529876     3560.0188      367275.28    
    388000   388            1.0043237      0.030848919    16.632343      1.5064709      21.105694      18.138814     -4.4733506      1220.8277      49.447662      48.043087      48.043087      0.015083964    0.026511541    0.050951251   -0.0085403441  -0.032662163    0.0035398074   3596.2413      367150.29    
    392000   392            1.0011327      0.033805623    16.623448      1.5016844      21.105875      18.125132     -4.4824272      2643.731       49.457363      47.999421      47.999421      0.024972037    0.07740333    -0.00095849872 -0.00013829583 -0.019295471    0.025711763    3632.3821      367018.85    
    396000   396            1.0016878      0.04704181     16.626586      1.502517       21.107061      18.129103     -4.4804754      2257.0807      49.467065      48.001799      48.001799      0.019241757    0.085391133    0.036492541   -0.014241568   -0.010650588    0.025375371    3668.6127      366898.33    
    400000   400            1.0008119      0.035878255    16.637152      1.5012033      21.110247      18.138356     -4.4730949      1329.0291      49.476766      48.012029      48.012029      0.025624886    0.025574483    0.056435397   -0.00083611438  0.020219678    0.0066644987   3705.2808      366822.8     
    404000   404            1.0002058      0.052501246    16.632276      1.5002941      21.103684      18.13257      -4.4714079      1941.8621      49.486467      48.028276      48.028276      0.023153552    0.071223305    0.063126883    0.062007199   -0.034081404    0.0018824464   3742.3441      366786.78    
    408000   408            1.0058784     -0.027803704    16.634442      1.5088028      21.103025      18.143245     -4.4685823      868.18253      49.496169      48.048839      48.048839     -0.078488106    0.034362755   -0.03928576    -0.017295497   -0.011551834    0.0063335489   3778.5991      366672.29    
    412000   412            1.0006863      0.051370271    16.641238      1.5010149      21.108841      18.142253     -4.4676032      990.42735      49.50587       48.034512      48.034512      0.035913958    0.084722057    0.033474797    0.022046168    0.0063102502   0.0079062623   3814.5587      366530.94    
    416000   416            1.0001748     -0.039363213    16.632196      1.5002475      21.103202      18.132443     -4.4710069      2016.0579      49.515571      48.01637       48.01637      -0.059833678   -0.049981414   -0.0082745462   0.01348275    -0.0088475098   0.032945323    3850.6043      366399.81    
    420000   420            1.0020107      0.0003433522   16.633934      1.5030014      21.109005      18.136935     -4.4750716      1575.9125      49.525273      48.000818      48.000818     -0.010917937   -0.0070267033   0.018974697   -0.039652722    0.010752423    0.0032219383   3886.8167      366286.2     
    424000   424            1.0037135      0.021817682    16.643282      1.5055556      21.108421      18.148838     -4.4651384      376.41527      49.534974      48.02457       48.02457      -0.0075250001   0.032776168    0.040201877    0.039926922    0.043302514    0.026118629    3923.1552      366185.83    
    428000   428            1.0010429     -0.010064598    16.639819      1.5015497      21.10912       18.141369     -4.4693012      1162.2388      49.544675      48.020477      48.020477     -0.083833598   -0.021077378    0.07471718     0.037824807    0.021538813    0.0098724401   3959.455       366083.07    
    432000   432            0.99750993    -0.031846523    16.636629      1.4962503      21.10297       18.132879     -4.4663405      2052.5106      49.554377      48.034722      48.034722     -0.058260646   -0.029049424   -0.0082294995  -0.012690691   -0.01200519     0.019877216    3995.7644      365982.42    
    436000   436            0.99882056    -0.078139909    16.632903      1.4982162      21.105537      18.131119     -4.4726339      2253.2002      49.564078      48.010541      48.010541     -0.064824398   -0.058999914   -0.11059541    -0.0084303195   0.0092003398  -0.016357972    4031.8545      365863.05    
    440000   440            0.99711617    -0.0019467425   16.636766      1.4956597      21.10421       18.132425     -4.467444       2140.0638      49.573779      47.984707      47.984707      0.03804954    -0.066045154    0.022155387    0.010030316   -0.018185089    0.027667416    4068.4696      365792.4     
    444000   444            1.0042726      0.044934922    16.639086      1.5063943      21.106608      18.14548      -4.4675223      822.449        49.583481      47.97247       47.97247       0.0070124056   0.11140919     0.016383172    0.032668175   -0.016341044    0.034612888    4104.8192      365698.71    
    448000   448            0.99988176    -0.0019471377   16.639234      1.499808       21.106153      18.139042     -4.4669184      1502.7703      49.593182      47.988617      47.988617     -0.00049382846 -0.0011238872  -0.0042236975   0.0071081488   0.014798902    0.01531471     4141.5766      365642.05    
    452000   452            1.0000225      0.050275702    16.633856      1.5000191      21.106579      18.133875     -4.4727233      2052.4956      49.602883      47.96624       47.96624       0.041096515    0.030727834    0.079002758    0.037648294    0.03337778     0.0050353937   4177.586       365520.29    
    456000   456            0.99736622    -0.025138086    16.638198      1.4960347      21.107164      18.134233     -4.4689655      2035.8723      49.612585      47.985018      47.985018     -0.024307222   -0.030795255   -0.020311781    0.023321206    0.017370467    0.0015955116   4213.6932      365408.51    
    460000   460            1.0018805     -0.0085872117   16.637029      1.5028061      21.109137      18.139835     -4.4721086      1481.4276      49.622286      47.967514      47.967514     -0.023840154   -0.0037480469   0.0018265655   0.0070898681  -0.026465352    0.02014438     4250.2138      365333.6     
    464000   464            0.99694732     0.0026138112   16.628232      1.4954064      21.106197      18.123638     -4.4779651      3161.9342      49.631987      47.950076      47.950076      0.021031518   -0.031070266    0.017880182    0.016021258    0.004707055   -0.014485861    4286.5314      365242.04    
    468000   468            0.9979364     -0.061344149    16.636505      1.49689        21.107612      18.133395     -4.4711068      2182.5194      49.641689      47.980687      47.980687     -0.066469211   -0.02494403    -0.092619204   -0.011569052    0.01238303     0.038546027    4323.2513      365185.41    
    472000   472            0.99910492     0.0061972065   16.638822      1.4986428      21.105164      18.137465     -4.4663415      1785.5323      49.65139       47.982974      47.982974      0.041403863   -0.017703206   -0.0051090373   0.044163593    0.014501609    0.005261638    4359.9029      365123.4     
    476000   476            0.99684029    -0.042134562    16.63903       1.4952458      21.107793      18.134276     -4.4687637      2132.8255      49.661091      47.985603      47.985603     -0.11270769     0.03734504    -0.051041034    0.00023016439 -0.037516143   -0.0060322993   4395.957       365012.19    
    480000   480            0.99197101    -0.022405407    16.634769      1.487942       21.107727      18.122711     -4.4729575      3338.3573      49.670793      47.939468      47.939468     -0.040592714   -0.0047284535  -0.021895053   -0.022043148   -0.0013627791   0.0056423918   4432.5117      364943.46    
    484000   484            0.99965738    -0.019743043    16.635403      1.4994714      21.103739      18.134875     -4.4683362      2112.0154      49.680494      47.947179      47.947179     -0.023187727    0.00068627273 -0.036727674   -0.04369813     0.0099418149   0.039606338    4468.8314      364856.08    
    488000   488            0.99844925    -0.040450194    16.640344      1.4976593      21.103153      18.138004     -4.4628086      1811.8302      49.690195      47.96395       47.96395      -0.065657573   -0.029385276   -0.026307733   -0.0058309841  -0.036249446    0.037721281    4505.0504      364761.38    
    492000   492            1.0019124      0.016969162    16.64144       1.5028539      21.107519      18.144294     -4.4660786      1187.572       49.699897      47.952505      47.952505      0.024406267    0.0422702     -0.015768981    0.021412694   -0.024154468    0.028840963    4541.9046      364718.63    
    496000   496            0.99719996     0.011426496    16.639367      1.4957854      21.106816      18.135153     -4.4674491      2145.0386      49.709598      47.944344      47.944344      0.026503684   -0.0080297586   0.015805564   -0.043836065    0.010646917   -0.028816487    4578.3176      364640.84    
    500000   500            0.99907876    -0.05179403     16.633736      1.4986035      21.107055      18.132339     -4.4733189      2453.7517      49.719299      47.92878       47.92878      -0.07255754    -0.011152182   -0.071672367   -0.0098712984   0.02858869     0.0076556008   4614.6007      364553.45    
    504000   504            1.0034071      0.021809128    16.640401      1.505096       21.104392      18.145497     -4.4639912      1125.3898      49.729001      47.945511      47.945511     -0.018723703    0.0010132053   0.083137883   -0.0043778945   0.014082471    0.00087109897  4651.2518      364495.71    
    508000   508            1.0008983      0.01386264     16.633886      1.5013328      21.106522      18.135219     -4.4726364      2199.0143      49.738702      47.91084       47.91084       0.030566798    0.015403456   -0.0043823348  -0.013124974   -0.0069927636   0.016031303    4687.5454      364410.51    
    512000   512            1.0008075      0.042701841    16.633365      1.5011966      21.107672      18.134562     -4.4743068      2286.7634      49.748403      47.891458      47.891458      0.035911612    0.051923159    0.040270752    0.038710505   -0.034609154   -0.013004755    4724.054       364342.67    
    516000   516            1.005347       0.048616181    16.640243      1.5080058      21.109485      18.148249     -4.4692419      904.14546      49.758105      47.889006      47.889006      0.029156251    0.1020215      0.014670789    0.010743493   -0.040929378   -0.023324877    4760.6249      364280.06    
    520000   520            1.0006686      0.055884851    16.639284      1.5009883      21.110273      18.140272     -4.4709886      1741.653       49.767806      47.879225      47.879225      0.14212908     0.050597644   -0.025072173    0.020182544    0.005557092   -0.015718513    4797.1469      364214.15    
    524000   524            1.0001791     -0.016968446    16.635746      1.5002541      21.106463      18.136        -4.4707166      2200.0761      49.777507      47.884621      47.884621     -0.04358091    -0.011574851    0.0042504212  -0.023340871   -0.029299299    0.028553964    4833.3772      364126.71    
    528000   528            1.0033744     -0.011249468    16.639736      1.5050469      21.108887      18.144783     -4.4691515      1320.1264      49.787209      47.898351      47.898351     -0.037803609    0.0084783663  -0.004423161   -0.032381049    0.078538524   -0.0073933578   4869.7081      364047.57    
    532000   532            1.0023419     -0.033402304    16.641872      1.5034983      21.10328       18.14537      -4.4614077      1280.5599      49.79691       47.919323      47.919323     -0.054621661   -0.012332616   -0.033252637   -0.005797506   -0.00045413549  0.013843317    4906.4981      364003.14    
    536000   536            0.99912806     0.061835893    16.634618      1.4986775      21.106335      18.133295     -4.471717       2538.4059      49.806611      47.879046      47.879046      0.04192488     0.084013052    0.059569746    0.061087396    0.021999254   -0.0015078086   4943.6373      363984.52    
    540000   540            1.0028097     -0.032316668    16.637646      1.5041998      21.107827      18.141846     -4.4701808      1682.5227      49.816313      47.869511      47.869511     -0.10498329    -0.0044987413   0.012532028   -0.025583202   -0.014572835   -0.063652765    4980.3934      363937.64    
    544000   544            0.99866669    -0.017406618    16.644503      1.4979854      21.107019      18.142488     -4.4625168      1637.2676      49.826014      47.906632      47.906632     -0.034258428   -0.022795815    0.0048343886   0.019131327    0.007321856   -0.010251043    5017.2152      363895.67    
    548000   548            0.99627988    -0.013011085    16.641868      1.4944052      21.109516      18.136274     -4.4676472      2295.026       49.835715      47.879261      47.879261      0.019295507   -0.093524116    0.035195354   -0.015856604    0.023226407    0.019308812    5054.4385      363882.68    
    552000   552            0.997982       0.021152091    16.637248      1.4969584      21.105368      18.134206     -4.4681201      2526.7468      49.845417      47.86167       47.86167       0.057887849    0.017402545   -0.011834122    0.000504384    0.021992443    0.021471102    5091.0963      363828.92    
    556000   556            1.0024103     -0.0070593038   16.643958      1.5036008      21.107467      18.147559     -4.4635086      1178.793       49.855118      47.876643      47.876643      0.01534557     0.044778246   -0.081301728   -0.03007386     0.0046761472  -0.0012248628   5127.9121      363786.63    
    560000   560            0.997261       0.0054314451   16.640171      1.4958769      21.108156      18.136048     -4.4679849      2378.614       49.864819      47.865277      47.865277     -0.021882185   -0.015986352    0.054162872    0.03639492     0.050598966   -0.011931957    5164.2663      363711.9     
    564000   564            1.00041       -0.00048963231  16.633767      1.5006004      21.103331      18.134367     -4.4695642      2571.4909      49.874521      47.871446      47.871446      0.04580931    -0.014903591   -0.032374617   -0.016095899    0.043167573   -0.0086365878   5201.4138      363693.18    
    568000   568            1.0011401      0.0040195728   16.647288      1.5016956      21.109304      18.148984     -4.4620156      1093.818       49.884222      47.881175      47.881175     -0.0053127238   0.054809306   -0.037437864    0.0025513892  -0.020692849    0.014563921    5237.8882      363627.48    
    572000   572            1.000146      -0.029861322    16.647596      1.5002044      21.108874      18.1478       -4.4612785      1235.3766      49.893923      47.872662      47.872662     -0.0093286769  -0.055405466   -0.024849824   -0.0085123898   0.0090214091  -0.014007192    5274.4339      363567.1     
    576000   576            1.0008996     -0.023266583    16.636703      1.5013348      21.10406       18.138038     -4.4673564      2255.835       49.903625      47.845874      47.845874     -0.007371253   -0.039444041   -0.022984455   -0.012306662   -0.0062319593   0.0053174742   5310.6448      363484.13    
    580000   580            0.996022      -0.067862085    16.638932      1.4940184      21.108722      18.13295      -4.4697901      2797.7376      49.913326      47.854784      47.854784     -0.10890356    -0.01323489    -0.0814478     -0.040567014    0.0089289078   0.04982727     5347.3568      363435.87    
    584000   584            0.99820857     0.0090655732   16.64171       1.4972983      21.106368      18.139009     -4.4646574      2197.1132      49.923027      47.837038      47.837038     -0.080147005    0.080625804    0.026717921    0.044864941    0.0066207028  -0.028628403    5383.8828      363375.21    
    588000   588            1.00328        0.013891452    16.630271      1.5049053      21.104433      18.135177     -4.4741621      2610.0346      49.932729      47.804855      47.804855      0.0029440779   0.0033507587   0.035379521    0.001231087    0.021386877   -0.024572128    5420.3304      363309.63    
    592000   592            0.9965649      0.018094716    16.631636      1.4948328      21.111047      18.126469     -4.4794107      3522.7865      49.94243       47.788805      47.788805      0.013785924   -0.02158544     0.062083665    0.017143669   -0.012284082    0.028801815    5456.959       363256.49    
    596000   596            0.99567198     0.0156584      16.640178      1.4934934      21.107429      18.133671     -4.4672514      2804.6576      49.952131      47.82832       47.82832       0.029334568    0.016136068    0.0015045646  -0.041939345   -0.031381408   -0.019227649    5493.7678      363215.48    
    600000   600            1.000024      -0.030409794    16.634405      1.5000214      21.106106      18.134427     -4.4717003      2747.357       49.961832      47.822583      47.822583     -0.091686539   -0.020556248    0.021013405    0.016322624    0.0082862976  -0.038676742    5530.7822      363188.03    
    604000   604            0.99851882     0.0012929383   16.64343       1.4977636      21.10624       18.141194     -4.4628099      2074.3363      49.971534      47.830489      47.830489     -0.021379129    0.05892604    -0.033668096   -0.022447454   -0.036213873    0.033109582    5567.5707      363145.72    
    608000   608            1.0006664     -0.0090196915   16.64174       1.5009849      21.105673      18.142725     -4.4639332      1937.8013      49.981235      47.814384      47.814384     -0.057484311    0.0035273179   0.026897918   -0.0074025514  -0.0026442914  -0.010524728    5604.0656      363084.46    
    612000   612            0.99818238     0.019736785    16.636032      1.497259       21.105392      18.133291     -4.4693595      2924.6457      49.990936      47.803969      47.803969      0.027125783    0.020665594    0.011418978    0.028187082    0.0097163374  -0.0058910971   5641.0138      363052.7     
    616000   616            1.0008251      0.0047158644   16.639281      1.5012231      21.109604      18.140504     -4.4703233      2205.9162      50.000638      47.789668      47.789668     -0.002365392    0.028803704   -0.012290719    0.013927998    0.0091937264  -0.0014345177   5678.1256      363031.33    
    620000   620            0.99532633    -0.015814145    16.633825      1.4929749      21.106682      18.1268       -4.4728576      3630.4776      50.010339      47.792581      47.792581     -0.020214563    0.0073002204  -0.034528091   -0.037932133   -0.00026024107  0.0034593435   5714.971       362992.83    
    624000   624            0.99623758     0.0053381594   16.635922      1.4943418      21.105076      18.130264     -4.4691532      3295.6137      50.02004       47.79166       47.79166       0.014790705    0.022305831   -0.021082058   -0.0010016093   0.006635447    0.047390448    5752.5065      362997.91    
    628000   628            0.9998447     -0.0263382      16.635435      1.4997524      21.103905      18.135187     -4.4684704      2810.6097      50.029742      47.793452      47.793452     -0.034034026    0.018635142   -0.063615715   -0.02371947    -0.056515449   -0.03650473     5789.3623      362959.83    
    632000   632            1.0023075      0.003284925    16.632802      1.5034466      21.107039      18.136249     -4.4742363      2722.4389      50.039443      47.750868      47.750868     -0.0026602042   0.014995134   -0.002480155    0.011796536    0.00063612765  0.0083215264   5825.8918      362901.44    
    636000   636            0.99781547     0.084861989    16.646309      1.4967086      21.108073      18.143018     -4.4617639      2049.3221      50.049144      47.765093      47.765093      0.068559108    0.10090792     0.085118941   -0.039249266    0.032674256    0.0023329653   5862.9311      362874.87    
    640000   640            1.0067863     -0.054617352    16.638217      1.5101648      21.106171      18.148382     -4.4679538      1519.7716      50.058846      47.763322      47.763322     -0.012523772   -0.090866114   -0.060462169   -0.017624054    0.022067131   -0.030931346    5899.8619      362841.51    
    644000   644            1.0022014     -0.037560518    16.637545      1.5032874      21.10764       18.140832     -4.470095       2313.7065      50.068547      47.760679      47.760679     -0.064227536   -0.084113897    0.035659878   -0.01426708     0.017958015    0.03270957     5936.5333      362792.24    
    648000   648            1.0013013      0.026226609    16.627835      1.5019373      21.111153      18.129772     -4.4833174      3466.8532      50.078248      47.718555      47.718555     -0.0069255269   0.054827909    0.030777444    0.020647441    0.0031794924   0.044224031    5973.5034      362761.28    
    652000   652            0.99651877    -0.0032939736   16.63521       1.4947636      21.109933      18.129973     -4.4747232      3466.717       50.08795       47.749355      47.749355     -0.0016361532  -0.0085467116   0.00030094397 -0.047007438   -0.007529512    0.0019646912   6009.9924      362701.2     
    656000   656            1.0020405      0.014612361    16.633538      1.503046       21.104425      18.136584     -4.4708871      2809.2828      50.097651      47.754334      47.754334     -0.012830269    0.092188354   -0.035521003   -0.032698294   -0.018862461   -0.017026711    6046.9592      362670.06    
    660000   660            1.0028173      0.0010404497   16.635246      1.5042113      21.106399      18.139457     -4.4711531      2534.7955      50.107352      47.744268      47.744268      0.011021032   -0.0070720964  -0.00082758661 -0.026471338    0.0055547587  -0.011454362    6084.2278      362656.85    
    664000   664            0.99698805    -0.036066404    16.630546      1.4954675      21.10538       18.126013     -4.4748347      3932.7489      50.117054      47.727164      47.727164      0.013235803   -0.067953886   -0.053481129    0.00080658202  0.024981035    0.0023898219   6121.187       362625.02    
    668000   668            0.99636022    -0.028984127    16.638625      1.4945258      21.107118      18.133151     -4.468493       3221.3957      50.126755      47.748346      47.748346     -0.0066547968  -0.056560554   -0.02373703    -0.055640994   -0.022470121    0.032688072    6158.7099      362626.31    
    672000   672            0.99931003     0.01455872     16.64056       1.4989504      21.108935      18.139511     -4.4683751      2589.3833      50.136456      47.741788      47.741788      0.0057458782   0.01465502     0.023275263   -0.0060098439   0.030941498    0.024577721    6195.5842      362589.19    
    676000   676            0.99718376    -0.011423099    16.634954      1.495761       21.102366      18.130715     -4.4674123      3511.0366      50.146158      47.746145      47.746145     -0.043847397    0.040670569   -0.031092468    0.032156011   -0.025472292   -0.022299093    6232.613       362561.06    
    680000   680            0.99965628    -0.044738763    16.643967      1.4994698      21.10791       18.143436     -4.4639438      2227.1585      50.155859      47.746148      47.746148     -0.027441304   -0.043183192   -0.063591792    0.03795598     0.017624723   -0.035755522    6269.2516      362510.26    
    684000   684            0.99456658     0.047309767    16.650215      1.4918353      21.10548       18.14205      -4.4552648      2388.9238      50.16556       47.76628       47.76628       0.042063187    0.054878731    0.044987385    0.012344831    0.029465475    0.01222475     6305.7946      362454.13    
    688000   688            0.99786817    -0.045264895    16.634702      1.4967877      21.105618      18.131489     -4.4709165      3491.4618      50.175262      47.711528      47.711528     -0.054482131   -0.041178896   -0.040133657    0.018141066   -0.0080811572  -0.027983787    6342.5784      362411.98    
    692000   692            0.99728572     0.040851575    16.631254      1.495914       21.107243      18.127168     -4.4759896      3954.5095      50.184963      47.683648      47.683648      0.080566001    0.036366889    0.0056218332   0.0026650625  -0.075974397    0.0030611129   6378.9552      362346.78    
    696000   696            1.0014614     -0.031288414    16.641402      1.5021775      21.108112      18.143579     -4.46671        2292.5597      50.194664      47.721668      47.721668     -0.045549766   -0.041990757   -0.0063247198   0.0073739647  -0.012497739    0.017827521    6415.9659      362317.71    
    700000   700            0.9971583      0.012860832    16.641858      1.4957229      21.107574      18.137581     -4.4657155      2927.4463      50.204366      47.733007      47.733007     -0.037831772    0.013960788    0.062453481   -0.015483437    0.019381098    0.018467031    6452.5079      362262.23    
    704000   704            0.99896818     0.024877824    16.635881      1.4984377      21.105607      18.134318     -4.4697263      3281.9371      50.214067      47.698677      47.698677     -0.016355766    0.036285568    0.054703671   -0.016233391    0.0054231359   0.025627365    6489.031       362205.91    
    708000   708            0.99889572     0.020686996    16.633891      1.498329       21.106305      18.13222      -4.4724132      3517.6048      50.223768      47.666833      47.666833      0.0080929124   0.038239715    0.015728361    0.029013716   -0.031936756   -0.0037270731   6525.6909      362157.41    
    712000   712            1.0038188     -0.019772858    16.639313      1.5057135      21.107997      18.145027     -4.4686841      2225.2834      50.23347       47.68065       47.68065      -0.0037125676  -0.028417541   -0.027188465    0.038723335   -0.015274282   -0.020063312    6562.1662      362098.86    
    716000   716            1.0033103     -0.0081637044   16.633521      1.5049507      21.111093      18.138472     -4.4775716      2917.2324      50.243171      47.657193      47.657193     -0.057923147    0.031851446    0.0015805879   0.0073907996  -0.02692983    -0.0044646698   6598.7174      362044.71    
    720000   720            1.0006354     -0.0074883942   16.635958      1.5009385      21.109066      18.136896     -4.4731081      3098.7263      50.252872      47.65221       47.65221      -0.01737042     0.011007865   -0.016102628   -0.015344508   -0.0075919915  -0.032837969    6634.9696      361974.45    
    724000   724            1.0036943      0.033076037    16.631943      1.5055267      21.104086      18.137469     -4.4721436      3060.2754      50.262574      47.65212       47.65212       0.022359228    0.0054307189   0.071438164   -0.0081663446  -0.026212892   -0.015713852    6671.5513      361922.44    
    728000   728            1.0029369     -0.0032547322   16.642959      1.5043906      21.104559      18.147349     -4.4616         2067.6676      50.272275      47.686959      47.686959      0.081410584   -0.059884526   -0.031290255    0.0080621185   0.067878521    0.025021338    6707.8338      361854.47    
    732000   732            1.0008537      0.0029475881   16.633924      1.501266       21.10313       18.13519      -4.4692059      3334.1747      50.281976      47.665728      47.665728      0.024420482   -0.038645035    0.023067317    0.06338856     0.013580306   -0.014527477    6744.4559      361805.05    
    736000   736            0.99804177    -0.0084872326   16.634989      1.4970481      21.105562      18.132037     -4.4705724      3677.6624      50.291678      47.656109      47.656109      0.00048968504 -0.065691637    0.039740255   -0.022228848    0.0048751065  -0.011629835    6780.802       361741.05    
    740000   740            1.0017064     -0.052931369    16.637546      1.5025449      21.109215      18.140091     -4.4716689      2872.1417      50.301379      47.652         47.652        -0.030565934   -0.069832902   -0.058395272    0.025183404   -0.0024764842   0.01107544     6817.1965      361679.91    
    744000   744            1.0007485      0.027870378    16.640572      1.5011082      21.1057        18.14168      -4.4651275      2729.3126      50.31108       47.66821       47.66821       0.053100912    0.011331002    0.01917922    -0.045080702   -0.00016791406 -0.016970677    6853.5098      361614.76    
    748000   748            0.99449242    -0.047740254    16.638001      1.4917241      21.104466      18.129725     -4.4664654      3974.6845      50.320782      47.670386      47.670386     -0.04424521    -0.043063906   -0.055911646    0.023023917    0.019254902   -0.042567036    6889.9355      361555.81    
    752000   752            0.99937006    -0.067330798    16.640294      1.4990405      21.104088      18.139335     -4.463794       3009.7161      50.330483      47.669738      47.669738     -0.028045455   -0.090811139   -0.0831358     -0.0035680638  -0.014878976   -0.015969303    6926.2827      361493.01    
    756000   756            1.0003567     -0.010890631    16.636415      1.5005205      21.107601      18.136935     -4.4711865      3275.6787      50.340184      47.633186      47.633186     -0.019281447    0.0033499258  -0.016740371    0.011611687   -0.033906261    0.072114459    6962.8411      361441.45    
    760000   760            0.99866552    -0.047556556    16.633929      1.4979837      21.104919      18.131913     -4.4709903      3810.6175      50.349886      47.645504      47.645504     -0.033895882   -0.049775415   -0.058998372    0.030296885   -0.020511038   -0.0017476851   6999.2824      361384       
    764000   764            0.99832036    -0.033916756    16.635962      1.4974659      21.103481      18.133427     -4.4675195      3675.1326      50.359587      47.639498      47.639498     -0.033613644   -0.058064869   -0.010071756    0.03120494    -0.064049678   -0.041465526    7035.6086      361320.86    
    768000   768            1.0003072     -0.010450106    16.643312      1.5004462      21.113278      18.143758     -4.4699662      2636.7108      50.369288      47.624512      47.624512      0.027265086   -0.023170042   -0.035445363   -0.016888378    0.055564286   -0.012454383    7071.8936      361255.9     
    772000   772            1.0014771     -0.0014633081   16.637528      1.502201       21.105873      18.139729     -4.4683456      3069.5269      50.37899       47.611489      47.611489     -0.056509515    0.015309183    0.036810408    0.012551641   -0.012699463   -0.0033779565   7108.3994      361202.45    
    776000   776            0.99976197     0.012906046    16.634204      1.4996283      21.109105      18.133833     -4.4749003      3693.8164      50.388691      47.594915      47.594915      0.08331637    -0.031441653   -0.013156577   -0.023704392    0.042976334    0.039433049    7144.8632      361147.05    
    780000   780            1.0023988     -0.034493994    16.636541      1.5035836      21.108444      18.140124     -4.4719035      3069.0583      50.398392      47.598514      47.598514      0.028307105   -0.075745283   -0.056043805    0.029552661    0.014130201   -0.039375581    7181.4094      361096       
    784000   784            1.0056052      0.01114441     16.641765      1.5083931      21.10686       18.150158     -4.4650953      2060.722       50.408094      47.615515      47.615515      0.0037327672   0.020708899    0.0089915623  -0.022400667    0.044419705    0.00073912017  7217.7853      361036.57    
    788000   788            1.0024667      0.02426822     16.635095      1.5036853      21.107677      18.138781     -4.4725815      3246.9646      50.417795      47.576707      47.576707     -0.014709147    0.022609685    0.064904122    0.0090055873  -0.015039978   -0.0023864399   7253.9629      360967.5     
    792000   792            1.0026268      0.041963999    16.631841      1.5039255      21.106264      18.135767     -4.4744231      3575.9721      50.427496      47.566229      47.566229      0.061212151    0.031907304    0.032772541    0.014750341    0.02639891    -0.018800234    7290.0084      360892.24    
    796000   796            1.0005008      0.061092209    16.640394      1.5007365      21.106653      18.141131     -4.4662593      3045.9568      50.437197      47.586971      47.586971      0.064838151    0.046181256    0.072257218   -0.02254539     0.032487879    0.039465969    7325.5561      360792.84    
    800000   800            1.0015136     -0.06979199     16.641683      1.5022557      21.106914      18.143939     -4.465231       2778.2349      50.446899      47.610011      47.610011     -0.10325487    -0.06577459    -0.040346512    0.028836911   -0.054989624   -0.023275676    7361.8945      360732.83    
    804000   804            1.0003632     -0.02422642     16.633265      1.5005302      21.105261      18.133795     -4.4719956      3838.2895      50.4566        47.579383      47.579383     -0.0092458193  -0.013897941   -0.049535501   -0.020335716    0.014329791    0.0035995145   7397.9686      360660.17    
    808000   808            0.99708137    -0.069928296    16.635404      1.4956075      21.104331      18.131011     -4.4689277      4143.3833      50.466301      47.5943        47.5943       -0.044961519   -0.082205813   -0.082617555    0.034410194   -0.0068934503   0.00017864064  7433.8849      360580.22    
    812000   812            1.0024564     -0.10857103     16.633505      1.5036699      21.106716      18.137175     -4.4732108      3531.3638      50.476003      47.578536      47.578536     -0.080782544   -0.13851945    -0.10641109     0.03177639    -0.010207105   -0.025544899    7469.4596      360484.22    
    816000   816            1.0012034     -0.036782195    16.648024      1.5017905      21.107438      18.149814     -4.4594143      2256.0581      50.485704      47.598612      47.598612     -0.015554818   -0.08153974    -0.013252026   -0.0064779259   0.022628372   -0.020184512    7505.6907      360420.33    
    820000   820            1.0022178      0.038950785    16.634162      1.503312       21.110538      18.137474     -4.476376       3540.7113      50.495405      47.531366      47.531366      0.055392988    0.034035589    0.027423778    0.021996857   -0.0020676411   0.016555591    7541.707       360346.44    
    824000   824            0.9983229      0.029738524    16.636374      1.4974697      21.114204      18.133844     -4.4778303      3932.5546      50.505107      47.522166      47.522166     -0.023377808    0.049813056    0.062780324    0.014990085    0.023016621    0.0010832488   7577.6757      360270.66    
    828000   828            1.0005141      0.067958698    16.625227      1.5007565      21.106781      18.125983     -4.4815546      4757.9491      50.514808      47.506541      47.506541      0.090798723    0.042513388    0.070563982    0.0088559962  -0.0047010415  -0.0027739411   7613.4402      360185.6     
    832000   832            1.0017065      0.046860926    16.623994      1.5025451      21.104459      18.126539     -4.4804649      4720.3364      50.524509      47.493382      47.493382      0.071791628    0.069825413   -0.0010342614  -0.015049754    0.0066004437   0.017031302    7649.246       360102.97    
    836000   836            1.0003223      0.018261848    16.636649      1.5004688      21.106912      18.137117     -4.4702633      3656.2745      50.534211      47.526951      47.526951      0.0086963683   0.049698973   -0.0036097973   0.0039902174   0.0081915786  -0.016568189    7685.286       360031.75    
    840000   840            1.0019726      0.012507863    16.639544      1.5029442      21.106031      18.142488     -4.4664874      3125.5868      50.543912      47.537938      47.537938      0.0044602285   0.023375467    0.0096878935  -0.0039231138  -0.019854504   -0.040951802    7721.0109      359946.17    
    844000   844            1.0002931     -0.033507908    16.634337      1.5004249      21.105008      18.134762     -4.4706711      3937.3497      50.553613      47.539111      47.539111     -0.066155389   -0.024174374   -0.010193959   -0.022096542    0.007226853   -0.0044978239   7757.1309      359879.41    
    848000   848            0.99796709    -0.013596042    16.633466      1.496936       21.10681       18.130402     -4.473344       4404.1815      50.563315      47.520749      47.520749     -0.028137496   -0.074517264    0.061866633    0.011488235   -0.022593474    0.0075857538   7793.0594      359804.08    
    852000   852            0.99992551    -0.033677797    16.643294      1.4998736      21.106122      18.143168     -4.4628274      3115.4617      50.573016      47.55357       47.55357      -0.037165372   -0.063315869   -0.00055215084  0.0080896939  -0.015789147   -0.039784276    7828.9264      359726.3     
    856000   856            1.0006568     -0.021191043    16.637179      1.5009705      21.105532      18.138149     -4.4683529      3649.8918      50.582717      47.545116      47.545116     -0.029915469   -0.0040376669  -0.029619992   -0.00017913778  0.041939187   -0.017180045    7864.6215      359641.05    
    860000   860            0.99748891    -0.022140996    16.639077      1.4962188      21.10734       18.135296     -4.4682625      3962.3786      50.592419      47.530947      47.530947     -0.086103961   -0.0030334546   0.022714429    0.0026978269   0.012965363   -0.015198756    7900.4105      359560.54    
    864000   864            0.99987327     0.001087127    16.639274      1.4997953      21.106602      18.139069     -4.4673283      3595.7355      50.60212       47.527589      47.527589      0.015157687    0.023305571   -0.035201877   -0.0013410732   0.026154989    0.0745019      7936.045       359473.44    
    868000   868            0.99867306    -0.010459115    16.64136       1.497995       21.104736      18.139355     -4.4633756      3586.2602      50.611821      47.541552      47.541552     -0.010834752    0.01246292    -0.033005512    0.0042803938   0.050460278   -0.015656989    7971.7135      359388.36    
    872000   872            0.99649261     0.0017554239   16.635196      1.4947243      21.101705      18.12992      -4.4665092      4573.4901      50.621523      47.509914      47.509914     -0.010649799   -0.0069493735   0.022865444   -0.043094857    0.018029841   -0.0054914127   8007.4882      359308.48    
    876000   876            0.99642378     0.00074355825  16.645235      1.4946211      21.104107      18.139856     -4.4588719      3575.0285      50.631224      47.528753      47.528753      0.00010355236  0.0042881856  -0.0021610632  -0.027304994    0.046204115    0.05813976     8043.4768      359238.57    
    880000   880            1.0002617     -0.068135668    16.644388      1.5003779      21.107188      18.144766     -4.4628003      3091.8525      50.640925      47.539193      47.539193     -0.08875077    -0.055288319   -0.060367915   -0.022412918    0.0094612696  -0.012146778    8079.077       359151.7     
    884000   884            0.99781228    -0.011874805    16.637635      1.4967038      21.103609      18.134339     -4.4659733      4180.2589      50.650627      47.510578      47.510578      0.02074878    -0.074133085    0.017759889   -0.029953454    0.019924138   -0.027028266    8114.8418      359072.57    
    888000   888            1.0012476     -0.072116267    16.632285      1.5018567      21.102698      18.134142     -4.4704123      4220.107       50.660328      47.491247      47.491247     -0.086008469   -0.072129633   -0.0582107     -0.010463561   -0.0042967688  -0.006337098    8150.8011      359002.4     
    892000   892            0.99529069    -0.01598792     16.630302      1.4929215      21.108756      18.123223     -4.4784539      5359.1829      50.670029      47.452501      47.452501     -0.034626274   -0.03445444     0.021116954   -0.019676965    0.017049014    0.026467756    8186.6121      358926.04    
    896000   896            0.99995527     0.081221008    16.633666      1.4999183      21.105568      18.133585     -4.4719012      4316.8357      50.679731      47.462752      47.462752      0.065107854    0.10922929     0.069325877    0.031601327   -0.02588788     0.07743576     8222.429       358850.3     
[...]
  39768000   39768          0.99942588    -0.16451163     16.647887      1.4991242      21.109178      18.147012     -4.461291       125117.12      144.95722      28.113271      28.113271     -0.44368153    -0.040488016   -0.0093653321   0.040331733    0.010327021   -0.0089251097   353561.57      2062.6203    
  39772000   39772          0.99375461    -0.1298008      16.647649      1.4906174      21.10829       18.138267     -4.4606409      126023.06      144.96692      28.105325      28.105325     -0.35156117    -0.034416209   -0.0034250319   0.0813941      0.0041867671   0.024398789    353598.27      2027.0644    
  39776000   39776          0.99923883    -0.14976579     16.645631      1.4988436      21.106144      18.144475     -4.4605128      125396.29      144.97663      28.097962      28.097962     -0.37463175    -0.037397775   -0.037267851   -0.0067637609   0.023432144    0.011120767    353635.06      1991.5088    
  39780000   39780          1.0034907     -0.18522372     16.650851      1.5052214      21.105847      18.156072     -4.454996       124217.32      144.98633      28.118588      28.118588     -0.46008619    -0.059498414   -0.036086542   -0.006849859   -0.036205718   -0.0019911119   353672.08      1955.9542    
  39784000   39784          1.0003828     -0.12160088     16.651593      1.5005595      21.110103      18.152152     -4.4585098      124628.98      144.99603      28.112131      28.112131     -0.34441987     0.011342779   -0.031725546    0.0046311637   0.0048232953  -0.038586741    353708.79      1920.3976    
  39788000   39788          0.9969642     -0.086479553    16.647078      1.4954317      21.108963      18.14251      -4.4618851      125626.98      145.00573      28.096734      28.096734     -0.31768242    -0.0029396025   0.061183367    0.027606476   -0.0045883629   0.045301997    353745.53      1884.841     
  39792000   39792          0.99725519    -0.11337652     16.65324       1.4958682      21.108485      18.149109     -4.4552443      124960.39      145.01543      28.098157      28.098157     -0.36999573    -0.00193627     0.031802432    0.016660555   -0.017206548   -0.02937217     353781.93      1849.2823    
  39796000   39796          1.0044461     -0.11137173     16.6513        1.5066545      21.108745      18.157955     -4.4574449      124063.26      145.02513      28.092164      28.092164     -0.39258898     0.028189747    0.03028405     0.0035547849  -0.014351706   -0.013906655    353818.78      1813.7258    
  39800000   39800          0.99850842    -0.068949217    16.64531       1.497748       21.107965      18.143058     -4.4626558      125599.57      145.03483      28.078508      28.078508     -0.3052158      0.026574786    0.071793359    0.0027427357  -0.037239352   -0.0025039489   353855.88      1778.1703    
  39804000   39804          1.0022393     -0.1020402      16.638801      1.5033443      21.106074      18.142145     -4.4672733      125702.94      145.04454      28.074974      28.074974     -0.29045233    -0.015148106   -0.0005201634   0.0058503992  -0.013937488   -0.0063631212   353893.7       1742.618     
  39808000   39808          1.0001269     -0.10928767     16.655651      1.5001757      21.110733      18.155826     -4.4550825      124310.69      145.05424      28.08797       28.08797      -0.38329195     0.034111147    0.021317804   -0.026866555    0.023456382    0.0051550032   353931.06      1707.063     
  39812000   39812          0.99871057    -0.12129818     16.6492        1.4980512      21.112806      18.147251     -4.4636056      125199.37      145.06394      28.081913      28.081913     -0.38720994     0.032739532   -0.0094241284  -0.0075827823   0.022553911   -0.033918571    353967.84      1671.5049    
  39816000   39816          0.99581045    -0.15739749     16.649418      1.4937011      21.109583      18.143119     -4.4601653      125632.46      145.07364      28.094561      28.094561     -0.3963902     -0.015541094   -0.060261175   -0.0083394983   0.030664614    0.009830886    354004.77      1635.9473    
  39820000   39820          1.0015487     -0.10775371     16.64806       1.5023083      21.109161      18.150369     -4.4611009      124898.98      145.08334      28.095357      28.095357     -0.34126566    -0.0087968754   0.026801404   -0.021840126    0.0080489878   0.038160668    354041.81      1600.3899    
  39824000   39824          0.99926475    -0.079135661    16.650507      1.4988825      21.106056      18.14939      -4.4555486      125008.86      145.09304      28.088723      28.088723     -0.30215799     0.067377839   -0.002626836   -0.013404412    0.012538351    0.013010534    354078.78      1564.8319    
  39828000   39828          0.99641311    -0.19856204     16.644912      1.4946051      21.107464      18.139517     -4.4625525      126030.66      145.10274      28.08656       28.08656      -0.43170016    -0.084720306   -0.07926565     0.023175264   -0.04484124     0.008720471    354115.66      1529.2732    
  39832000   39832          0.99780343    -0.12328907     16.648408      1.4966905      21.105458      18.145099     -4.4570496      125468.23      145.11244      28.09809       28.09809      -0.33212421    -0.021596215   -0.016146778   -0.029850334   -0.029865434    0.023099267    354152.7       1493.715     
  39836000   39836          1.0039891     -0.19272365     16.644647      1.505969       21.105647      18.150616     -4.461          124912.41      145.12215      28.09844       28.09844      -0.42229118    -0.092275727   -0.06360406     0.013909161    0.020719823   -0.026462518    354189.83      1458.1568    
  39840000   39840          0.99994874    -0.080604823    16.641425      1.4999085      21.108591      18.141333     -4.4671666      125873.37      145.13185      28.068508      28.068508     -0.28618334     0.025832981    0.018535885    0.038586015   -0.010837829   -0.016826731    354227.04      1422.5986    
  39844000   39844          0.99899239    -0.075688728    16.642099      1.498474       21.111058      18.140573     -4.4689585      125961.12      145.14155      28.06047       28.06047      -0.34597078     0.061539198    0.057365396   -0.023668371   -0.0015696582   0.026457516    354263.32      1387.0364    
  39848000   39848          1.0002106     -0.1161652      16.647055      1.5003013      21.108412      18.147356     -4.4613574      125275.36      145.15125      28.07438       28.07438      -0.28286307     0.00073649637 -0.066369026   -0.0043190935  -0.0014655935  -0.020642317    354300.58      1351.4778    
  39852000   39852          1.0009884     -0.17458758     16.657629      1.5014679      21.112228      18.159097     -4.4545995      124082.08      145.16095      28.117086      28.117086     -0.41671664    -0.063089858   -0.043956238    0.0099816317  -0.030959059   -0.0032743454   354337.73      1315.9185    
  39856000   39856          0.99919097    -0.13869161     16.660142      1.4987718      21.10819       18.158914     -4.4480477      124110.45      145.17065      28.110666      28.110666     -0.39189538     0.021323921   -0.045503355    0.0029752543   0.015715125   -0.014783228    354374.72      1280.3583    
  39860000   39860          0.997341      -0.1435353      16.650952      1.4959969      21.107308      18.146949     -4.4563561      125346.62      145.18035      28.096258      28.096258     -0.41561229    -0.035617024    0.02062341     0.016732539   -0.037900152   -0.01372954     354411.88      1244.7984    
  39864000   39864          0.99910844    -0.15997004     16.642699      1.498648       21.106345      18.141347     -4.4636466      125930.47      145.19006      28.078098      28.078098     -0.42352499    -0.012257476   -0.044127649    0.017857484   -0.048818454    0.01023864     354449.05      1209.2382    
  39868000   39868          1.0007338     -0.10201359     16.635113      1.5010861      21.107034      18.136199     -4.4719207      126467.57      145.19976      28.056851      28.056851     -0.32236076     0.04061412    -0.024294131   -0.015891598   -0.040794629   -0.034958101    354486.28      1173.6779    
  39872000   39872          1.0014012     -0.10472203     16.645968      1.5020871      21.108791      18.148056     -4.4628223      125262.18      145.20946      28.070122      28.070122     -0.30776688    -0.01375674     0.0073575375  -0.032598509    0.015621713   -0.0049990444   354523.05      1138.1157    
  39876000   39876          1.0039878     -0.11494896     16.647324      1.505967       21.109405      18.153291     -4.4620804      124735.18      145.21916      28.074383      28.074383     -0.38914361     0.040202825    0.0040939164  -0.034603916    0.066714552   -0.01369441     354559.86      1102.5535    
  39880000   39880          0.99917225    -0.096180473    16.643236      1.4987438      21.105032      18.14198      -4.4617959      125904.29      145.22886      28.06651       28.06651      -0.36211248     0.04397222     0.029598842   -0.0049997344   0.0096186836   0.02622799     354596.69      1066.9911    
  39884000   39884          1.0031192     -0.10575407     16.64265       1.5046642      21.106553      18.147314     -4.4639036      125367.39      145.23856      28.059709      28.059709     -0.38449011     0.0015228715   0.065705036   -0.0057297646  -0.0046350867  -0.056638293    354633.2       1031.4274    
  39888000   39888          1.0013606     -0.10417045     16.649441      1.5020263      21.111662      18.151467     -4.4622213      124951.73      145.24826      28.06585       28.06585      -0.34730281     0.046754371   -0.011962914   -0.0070563539  -0.036833567   -0.023554966    354669.82      995.86393    
  39892000   39892          1.0013627     -0.15013393     16.642423      1.5020294      21.110633      18.144452     -4.4682098      125679.93      145.25796      28.070838      28.070838     -0.40882448    -0.017930827   -0.023646485   -0.028560497    0.028901753    0.014124855    354706.55      960.30049    
  39896000   39896          0.99970759    -0.14228504     16.646892      1.4995468      21.107984      18.146439     -4.4610925      125486.03      145.26767      28.075192      28.075192     -0.32310189    -0.076877601   -0.026875617    0.013830495   -0.0017144528   0.01846287     354743.18      924.73658    
  39900000   39900          1.0001349     -0.094273223    16.651377      1.5001877      21.108227      18.151565     -4.4568495      124970.37      145.27737      28.083832      28.083832     -0.34201789     0.051933224    0.0072649988  -0.0061054377  -0.0074234385   0.027281863    354779.86      889.17257    
  39904000   39904          1.0010055     -0.096840092    16.655352      1.5014936      21.109131      18.156845     -4.4537789      124438.92      145.28707      28.078302      28.078302     -0.34032433     0.019529518    0.030274535   -0.01618543    -0.055071802    0.013662129    354816.65      853.60862    
  39908000   39908          1.0013609     -0.12637321     16.64181       1.5020267      21.108466      18.143837     -4.4666562      125781.62      145.29677      28.061576      28.061576     -0.35757128     0.0031581027  -0.024706458   -0.038859449    0.0058042591   0.036814637    354853.54      818.04464    
  39912000   39912          1.0037561     -0.074507052    16.636361      1.5056195      21.111309      18.141981     -4.4749478      125981.47      145.30647      28.032519      28.032519     -0.29965196     0.02239348     0.053737327   -0.0030821101  -0.0033915337  -0.025866423    354889.91      782.47926    
  39916000   39916          1.0002771     -0.10286296     16.638532      1.500401       21.108178      18.138933     -4.469646       126303.42      145.31617      28.038271      28.038271     -0.34809578     0.0039830724   0.035523845   -0.019112745   -0.057656815   -0.012706027    354926.93      746.91507    
  39920000   39920          1.0045708     -0.131069       16.641776      1.5068415      21.108905      18.148618     -4.4671289      125320.63      145.32587      28.05509       28.05509      -0.42877644     0.018338393    0.01723104     0.016314272    0.018584915   -0.0011967894   354963.7       711.3501     
  39924000   39924          0.99786039    -0.16483347     16.65095       1.496776       21.111015      18.147726     -4.4600656      125421.88      145.33558      28.072645      28.072645     -0.45672043    -0.028872053   -0.0089079303  -0.069899864   -0.053746022    0.042700171    355000.86      675.78563    
  39928000   39928          1.0015775     -0.18455407     16.656594      1.5023516      21.109036      18.158945     -4.4524418      124281.75      145.34528      28.081087      28.081087     -0.4583456     -0.053895453   -0.041421158    0.037772131   -0.043243992   -0.015412467    355037.85      640.22053    
  39932000   39932          0.99809065    -0.12527074     16.647446      1.4971214      21.110154      18.144568     -4.4627074      125765.05      145.35498      28.054615      28.054615     -0.32739683    -0.041767337   -0.006648045   -0.0064742905  -0.034009146   -0.0087592048   355074.92      604.65528    
  39936000   39936          0.99918701    -0.13945216     16.647271      1.4987659      21.108469      18.146037     -4.4611981      125624.08      145.36468      28.061694      28.061694     -0.42777575    -0.0016317634   0.011051026    0.017742564   -0.003433209   -0.00020784939  355111.73      569.08931    
  39940000   39940          0.99846601    -0.13540699     16.655304      1.4976844      21.113916      18.152988     -4.4586126      124921.57      145.37438      28.06736       28.06736      -0.39308894    -0.024847786    0.011715751   -0.0025038628  -0.032288742   -0.025098675    355148.95      533.52371    
  39944000   39944          0.99904897    -0.12661895     16.644529      1.4985588      21.105725      18.143088     -4.4611963      125945.76      145.38408      28.060784      28.060784     -0.35643126    -0.0073617236  -0.016063871    0.0076226541  -0.0059829645   0.013329017    355186.06      497.95762    
  39948000   39948          0.99955555    -0.080090911    16.642006      1.4993187      21.105023      18.141325     -4.4630163      126136.11      145.39378      28.046069      28.046069     -0.31238593     0.0042830041   0.067830196   -0.010566481    0.01692923     0.010987933    355223.18      462.39125    
  39952000   39952          1.0003997     -0.16809321     16.655566      1.500585       21.109225      18.15615      -4.4536595      124626.49      145.40348      28.069675      28.069675     -0.45226534    -0.022177337   -0.029836961    0.025176162   -0.021262943    0.034758454    355260.23      426.82447    
  39956000   39956          1.0010679     -0.12305763     16.647221      1.5015873      21.107534      18.148809     -4.4603125      125388.81      145.41319      28.053113      28.053113     -0.39279017     0.00011098129  0.023506294    0.0058714617  -0.0028930926  -0.0041737492   355297.76      391.25792    
  39960000   39960          1.0008726     -0.11723777     16.645652      1.5012943      21.106055      18.146947     -4.4604029      125589.24      145.42289      28.048238      28.048238     -0.38862628     0.01664777     0.020265197   -0.050088086    0.032379958    0.0056761077   355334.45      355.69014    
  39964000   39964          1.0047469     -0.1371223      16.652731      1.5071056      21.110672      18.159836     -4.4579417      124277.92      145.43259      28.061123      28.061123     -0.39126447    -0.010593134   -0.0095093067   0.01103984     0.00074374551 -0.023882198    355371.15      320.12214    
  39968000   39968          0.99995212    -0.13167949     16.650507      1.4999136      21.107853      18.15042      -4.4573465      125252.63      145.44229      28.055335      28.055335     -0.34456409    -0.065510002    0.015035605    0.0031143911  -0.020220384    0.031739908    355407.8       284.55388    
  39972000   39972          0.9996727     -0.13709929     16.644159      1.4994944      21.104478      18.143654     -4.4603194      125955.96      145.45199      28.052287      28.052287     -0.40010531     0.022786294   -0.033978848    0.015216804    0.0042300732   0.049285694    355444.17      248.98521    
  39976000   39976          1.0012867     -0.13743928     16.651586      1.5019154      21.106792      18.153502     -4.4552061      124956.2       145.46169      28.068063      28.068063     -0.34891237     0.00082003336 -0.064225494    0.034114658   -0.010221431    0.0053002467   355481.36      213.41687    
  39980000   39980          1.0023548     -0.08523246     16.650224      1.5035176      21.109874      18.153742     -4.4596494      124941.4       145.47139      28.049507      28.049507     -0.35494169     0.072297543    0.026946769    0.047578193   -0.025100098    0.00061597517  355518.48      177.84816    
  39984000   39984          0.99998511    -0.14958486     16.645661      1.499963       21.108539      18.145624     -4.4628783      125783.56      145.4811       28.046967      28.046967     -0.43977412     0.012184147   -0.021164599    0.014282889    0.051615552    0.01561415     355555.63      142.27917    
  39988000   39988          1.0006676     -0.10673295     16.651483      1.5009867      21.110464      18.15247      -4.4589802      125091.39      145.4908       28.038682      28.038682     -0.36778946     0.047254117    0.00033647485 -0.043848832   -0.007332099   -0.0052936901   355592.74      106.70983    
  39992000   39992          1.0005641     -0.14268771     16.646991      1.5008315      21.111195      18.147822     -4.4642039      125577.62      145.5005       28.048955      28.048955     -0.415067      -0.046060502    0.033064363   -0.057881937    0.0092376038  -0.032531038    355629.68      71.140164    
  39996000   39996          0.99713847    -0.086094585    16.643566      1.4956931      21.108286      18.13926      -4.4647191      126464.64      145.5102       28.039395      28.039395     -0.34908693     0.038957134    0.05184604     0.039027509   -0.029546655    0.010923179    355666.45      35.570202    
  40000000   40000          1.0003382     -0.1412523      16.650588      1.5004926      21.110336      18.151081     -4.4597479      125262.94      145.5199       28.041619      28.041619     -0.35541066    -0.012323595   -0.056022654   -0.030773669   -0.073506695   -0.048698621    355703.12      0            
Loop time of 355703 on 18 procs for 40000000 steps with 102500 atoms

Performance: 9715.968 tau/day, 112.453 timesteps/s
98.1% CPU use with 18 MPI tasks x 1 OpenMP threads

MPI task timing breakdown:
Section |  min time  |  avg time  |  max time  |%varavg| %total
---------------------------------------------------------------
Pair    | 2.2283e+05 | 2.3032e+05 | 2.4195e+05 | 802.8 | 64.75
Bond    | 12575      | 13049      | 14138      | 319.2 |  3.67
Neigh   | 12796      | 12813      | 12830      |   7.9 |  3.60
Comm    | 36413      | 44122      | 50480      |1677.9 | 12.40
Output  | 941.16     | 941.19     | 941.24     |   0.1 |  0.26
Modify  | 46805      | 51968      | 55153      |1583.5 | 14.61
Other   |            | 2494       |            |       |  0.70

Nlocal:        5694.44 ave        5723 max        5663 min
Histogram: 1 1 2 3 1 3 0 3 2 2
Nghost:        9983.28 ave       10034 max        9947 min
Histogram: 2 4 1 2 2 3 0 2 0 2
Neighs:         224697 ave      228780 max      220267 min
Histogram: 2 1 1 1 2 4 2 3 1 1

Total # of neighbors = 4044539
Ave neighs/atom = 39.458917
Ave special neighs/atom = 6.6256976
Neighbor list builds = 1331706
Dangerous builds = 0

# GENERATION RESTART
write_restart ./out.deform.restart
System init for write_restart ...
Generated 0 of 36 mixed pair_coeff terms from geometric mixing rule
write_data    ./out.deform.data pair ij
System init for write_data ...
Generated 0 of 36 mixed pair_coeff terms from geometric mixing rule
Total wall time: 98:48:24
