LAMMPS (15 Sep 2022)
OMP_NUM_THREADS environment is not set. Defaulting to 1 thread. (src/comm.cpp:98)
  using 1 OpenMP thread(s) per MPI task
# LAMMPS Script for deform
# Generated 12/17/2022

# INIT PARAMS & READ CONF
include   "/work_bgfs/h/harshad/simulation_9/neat_polymer/config_3/system.init"
# UNITS
units		lj
dimension	3
atom_style	bond

# INPUT FILE
pair_style	lj/cut 2.5
bond_style	fene
read_data /work_bgfs/h/harshad/simulation_9/neat_polymer/config_3/quiescent/thermal_replicates/2.npt.data
Reading data file ...
  orthogonal box = (-24.256494 -24.256494 -24.256494) to (24.256494 24.256494 24.256494)
  2 by 3 by 3 MPI processor grid
  reading atoms ...
  102500 atoms
  reading velocities ...
  102500 velocities
  scanning bonds ...
  2 = max bonds/atom
  reading bonds ...
  104500 bonds
Finding 1-2 1-3 1-4 neighbors ...
  special bond factors lj:    0        0        0       
  special bond factors coul:  0        0        0       
     4 = max # of 1-2 neighbors
     4 = max # of 1-3 neighbors
     8 = max # of 1-4 neighbors
    12 = max # of special neighbors
  special bonds CPU = 0.005 seconds
  read_data CPU = 0.942 seconds
include   "/work_bgfs/h/harshad/simulation_9/neat_polymer/config_3/system.settings"
# ATOM TYPE
mass  1  1.0 #backbone
mass  2  1.0 #endmer
mass  3  1.0 #crosslinker
mass  4  1.0 #outer shell
mass  5  1.0 #inner shell 2
mass  6  1.0 #inner-most shell
mass  7  1.0 #center bead
mass  8  1.0 #endmer post crosslinking
mass  9  1.0 #crosslinker post crosslinking

# BOND
bond_coeff * 30.0 1.50 1.0 1.0
special_bonds lj 0.0 1.0 1.0
Finding 1-2 1-3 1-4 neighbors ...
  special bond factors lj:    0        1        1       
  special bond factors coul:  0        0        0       
     4 = max # of 1-2 neighbors
     4 = max # of 1-3 neighbors
     8 = max # of 1-4 neighbors
    12 = max # of special neighbors
  special bonds CPU = 0.003 seconds

# PAIR
pair_coeff  1*9 1*9 1.0 1.0 2.5

pair_modify  shift yes
neigh_modify delay 1 check yes

# MAKE GROUPS
group polymer type 1 2 3 8 9
102500 atoms in group polymer
#group ins     type 1
#group strand  type 1 2 8
#group ends    type 2 8
#group xlinks  type 3 9
#group filler  type 4 5 6 7

# INPUTS FROM SBATCH
variable Temp          equal 1.0
variable gamma_total   equal 2.0
variable gamma_rate    equal 0.00005
variable dt            equal 0.001
variable Nfreq         equal 4000
variable Nrepeat_2     equal 100
variable Nevery_1      equal 1
variable Nrepeat_1     equal 1

variable Run           equal ${gamma_total}/${gamma_rate}/${dt}
variable Run           equal 2/${gamma_rate}/${dt}
variable Run           equal 2/5e-05/${dt}
variable Run           equal 2/5e-05/0.001

# RUN OPTIONS
run_style verlet
timestep  ${dt}
timestep  0.001

# RESTART
restart  ${Nfreq} cycle.1.restart cycle.2.restart
restart  4000 cycle.1.restart cycle.2.restart

## SAVE RESTARTS EVERY 10% EXTENSION
#variable RestFreq      equal 0.1/${gamma_rate}/${dt}
#restart  ${RestFreq} deform.*.restart
#
# COMPUTE ke/atom, pe/atom, pxx/atom, position and time-avg
compute     ke_atm          all     ke/atom
compute     p_atm           all     stress/atom NULL
compute     pe_atm          all     pe/atom
compute     ebond_atm       all     pe/atom bond
compute     posit_atm       all     property/atom x y z
fix         avg_ke_atm_1    all     ave/atom ${Nevery_1} ${Nrepeat_1} ${Nfreq} c_ke_atm
fix         avg_ke_atm_1    all     ave/atom 1 ${Nrepeat_1} ${Nfreq} c_ke_atm
fix         avg_ke_atm_1    all     ave/atom 1 1 ${Nfreq} c_ke_atm
fix         avg_ke_atm_1    all     ave/atom 1 1 4000 c_ke_atm
fix         avg_pxx_atm_1   all     ave/atom ${Nevery_1} ${Nrepeat_1} ${Nfreq} c_p_atm[*]
fix         avg_pxx_atm_1   all     ave/atom 1 ${Nrepeat_1} ${Nfreq} c_p_atm[*]
fix         avg_pxx_atm_1   all     ave/atom 1 1 ${Nfreq} c_p_atm[*]
fix         avg_pxx_atm_1   all     ave/atom 1 1 4000 c_p_atm[*]
fix         avg_pe_atm_1    all     ave/atom ${Nevery_1} ${Nrepeat_1} ${Nfreq} c_pe_atm
fix         avg_pe_atm_1    all     ave/atom 1 ${Nrepeat_1} ${Nfreq} c_pe_atm
fix         avg_pe_atm_1    all     ave/atom 1 1 ${Nfreq} c_pe_atm
fix         avg_pe_atm_1    all     ave/atom 1 1 4000 c_pe_atm
#fix         avg_posit_atm_1 all     ave/atom ${Nevery_1} ${Nrepeat_1} ${Nfreq} c_posit_atm[1] c_posit_atm[2] c_posit_atm[3]
dump        dump_1 all custom ${Nfreq} ${out_dir}traj.${Nevery_1}_${Nrepeat_1}_${Nfreq}.xyz mol type x y z f_avg_ke_atm_1 f_avg_pe_atm_1 f_avg_pxx_atm_1[*]
dump        dump_1 all custom 4000 ${out_dir}traj.${Nevery_1}_${Nrepeat_1}_${Nfreq}.xyz mol type x y z f_avg_ke_atm_1 f_avg_pe_atm_1 f_avg_pxx_atm_1[*]
dump        dump_1 all custom 4000 /shares_bgfs/dssimmons_data/harshad/deform/neat_polymer/config_3/2_deformwork_bgfs--h--harshad--simulation_9--neat_polymer--config_3--2_deform--traj.${Nevery_1}_${Nrepeat_1}_${Nfreq}.xyz mol type x y z f_avg_ke_atm_1 f_avg_pe_atm_1 f_avg_pxx_atm_1[*]
dump        dump_1 all custom 4000 /shares_bgfs/dssimmons_data/harshad/deform/neat_polymer/config_3/2_deformwork_bgfs--h--harshad--simulation_9--neat_polymer--config_3--2_deform--traj.1_${Nrepeat_1}_${Nfreq}.xyz mol type x y z f_avg_ke_atm_1 f_avg_pe_atm_1 f_avg_pxx_atm_1[*]
dump        dump_1 all custom 4000 /shares_bgfs/dssimmons_data/harshad/deform/neat_polymer/config_3/2_deformwork_bgfs--h--harshad--simulation_9--neat_polymer--config_3--2_deform--traj.1_1_${Nfreq}.xyz mol type x y z f_avg_ke_atm_1 f_avg_pe_atm_1 f_avg_pxx_atm_1[*]
dump        dump_1 all custom 4000 /shares_bgfs/dssimmons_data/harshad/deform/neat_polymer/config_3/2_deformwork_bgfs--h--harshad--simulation_9--neat_polymer--config_3--2_deform--traj.1_1_4000.xyz mol type x y z f_avg_ke_atm_1 f_avg_pe_atm_1 f_avg_pxx_atm_1[*]
dump_modify dump_1 append yes sort id

# COMPUTE a separate pe and ke for each group, AVG & SAVE
compute   pe_polymer    all reduce  sum c_pe_atm
compute   ke_polymer    all reduce  sum c_ke_atm
compute   ebond_polymer all reduce  sum c_ebond_atm
compute   pxx_polymer   all reduce  sum c_p_atm[1] c_p_atm[2] c_p_atm[3]
compute   pxy_polymer   all reduce  sum c_p_atm[4] c_p_atm[5] c_p_atm[6]
fix 		  avgEnergy     all     ave/time ${Nevery_1} ${Nrepeat_2} ${Nfreq} c_pe_polymer c_ke_polymer c_ebond_polymer c_pxy_polymer[1] c_pxy_polymer[2] c_pxy_polymer[3] file energy.avg.csv
fix 		  avgEnergy     all     ave/time 1 ${Nrepeat_2} ${Nfreq} c_pe_polymer c_ke_polymer c_ebond_polymer c_pxy_polymer[1] c_pxy_polymer[2] c_pxy_polymer[3] file energy.avg.csv
fix 		  avgEnergy     all     ave/time 1 100 ${Nfreq} c_pe_polymer c_ke_polymer c_ebond_polymer c_pxy_polymer[1] c_pxy_polymer[2] c_pxy_polymer[3] file energy.avg.csv
fix 		  avgEnergy     all     ave/time 1 100 4000 c_pe_polymer c_ke_polymer c_ebond_polymer c_pxy_polymer[1] c_pxy_polymer[2] c_pxy_polymer[3] file energy.avg.csv
fix       avgPxx_all    all     ave/time ${Nevery_1} ${Nfreq} ${Nfreq}     c_pxx_polymer[1] c_pxx_polymer[2] c_pxx_polymer[3]                                           file pxx.all.avg.csv
fix       avgPxx_all    all     ave/time 1 ${Nfreq} ${Nfreq}     c_pxx_polymer[1] c_pxx_polymer[2] c_pxx_polymer[3]                                           file pxx.all.avg.csv
fix       avgPxx_all    all     ave/time 1 4000 ${Nfreq}     c_pxx_polymer[1] c_pxx_polymer[2] c_pxx_polymer[3]                                           file pxx.all.avg.csv
fix       avgPxx_all    all     ave/time 1 4000 4000     c_pxx_polymer[1] c_pxx_polymer[2] c_pxx_polymer[3]                                           file pxx.all.avg.csv

# TIME-AVG Ly
variable Ly equal ly
fix       avgLy         all     ave/time ${Nevery_1} ${Nfreq} ${Nfreq}     v_Ly  file Ly.avg.csv
fix       avgLy         all     ave/time 1 ${Nfreq} ${Nfreq}     v_Ly  file Ly.avg.csv
fix       avgLy         all     ave/time 1 4000 ${Nfreq}     v_Ly  file Ly.avg.csv
fix       avgLy         all     ave/time 1 4000 4000     v_Ly  file Ly.avg.csv

# SIMULATION FIXES
fix  npt        all npt temp ${Temp} ${Temp} 2.0 y 0 0 5 z 0 0 5 couple yz
fix  npt        all npt temp 1 ${Temp} 2.0 y 0 0 5 z 0 0 5 couple yz
fix  npt        all npt temp 1 1 2.0 y 0 0 5 z 0 0 5 couple yz
fix  mom        all momentum 10000 linear 1 1 1
fix  deform     all deform 1 x erate ${gamma_rate} remap x units box
fix  deform     all deform 1 x erate 5e-05 remap x units box

# THERMO
variable  thermo_frq equal ${Nfreq}
variable  thermo_frq equal 4000
thermo    ${thermo_frq}
thermo    4000
thermo_style  custom step time temp press pe ke ebond etotal epair ecouple lx ly lz pxx pyy pzz pxy pxz pyz cpu cpuremain

# deform
run ${Run}
run 40000000
Generated 0 of 36 mixed pair_coeff terms from geometric mixing rule
Neighbor list info ...
  update: every = 1 steps, delay = 1 steps, check = yes
  max neighbors/atom: 2000, page size: 100000
  master list distance cutoff = 2.8
  ghost atom cutoff = 2.8
  binsize = 1.4, bins = 35 35 35
  1 neighbor lists, perpetual/occasional/extra = 1 0 0
  (1) pair lj/cut, perpetual
      attributes: half, newton on
      pair build: half/bin/newton
      stencil: half/bin/3d
      bin: standard
WARNING: Inconsistent image flags (src/domain.cpp:819)
Per MPI rank memory allocation (min/avg/max) = 12.77 | 12.77 | 12.78 Mbytes
   Step          Time           Temp          Press          PotEng         KinEng         E_bond         TotEng         E_pair        Ecouple           Lx             Ly             Lz            Pxx            Pyy            Pzz            Pxy            Pxz            Pyz            CPU          CPULeft    
         0   0              1.001611      -0.048917167    16.633809      1.5024018      21.106749      18.136211     -4.4729398      0              48.512987      48.512987      48.512987     -0.050497069   -0.034014432   -0.062240001   -0.0023318117  -0.040205676    0.020562409    0              0            
      4000   4              0.99833734     0.033072941    16.629643      1.4974914      21.106445      18.127135     -4.4768014      950.51356      48.52269       48.490446      48.490446      0.020965762    0.044598037    0.033655024    0.005911479   -0.0014933606   0.066091119    35.638478      356349.15    
      8000   8              0.99701935     0.012382124    16.63057       1.4955144      21.105888      18.126084     -4.4753183      1078.8306      48.532393      48.468961      48.468961      0.0048632853   0.017026975    0.015256113   -0.020073343    0.011184602    0.01120057     71.327293      356565.14    
     12000   12             1.0021408     -0.0025500061   16.632291      1.5031965      21.103759      18.135487     -4.4714689      135.59757      48.542095      48.484902      48.484902     -0.042117949    0.031423354    0.0030445764   0.025610302    0.040422377   -0.0065624252   108.46021      361425.59    
     16000   16             1.0050529      0.017930193    16.631027      1.5075647      21.106034      18.138592     -4.4750063     -162.14439      48.551798      48.473975      48.473975     -0.012221613    0.0063809984   0.059631193   -0.019474306    0.0039939239  -0.010012392    145.10358      362613.86    
     20000   20             0.9970206      0.051257234    16.63312       1.4955163      21.105993      18.128636     -4.4728729      879.02438      48.5615        48.486737      48.486737     -0.00014680889  0.10179291     0.052125598   -0.015990492    0.021619294    0.055095548    181.47         362758.54    
     24000   24             1.0004239     -0.047978253    16.636211      1.5006212      21.106091      18.136832     -4.4698808      59.68369       48.571203      48.506661      48.506661     -0.068443802   -0.016216553   -0.059274404    0.029670689    0.031885126    0.0042839289   217.92419      362989.06    
     28000   28             0.99902982    -0.02060774     16.63821       1.4985301      21.109715      18.13674      -4.4715049      90.110013      48.580906      48.487957      48.487957     -0.001455062   -0.026747144   -0.033621013   -0.027296549   -0.0070674442  -0.00584267     254.47866      363286.46    
     32000   32             0.99857562    -0.021568177    16.625322      1.4978488      21.106638      18.12317      -4.4813161      1501.3449      48.590608      48.450484      48.450484     -0.03124627    -0.030346402   -0.0031118602   0.01690579    -0.029378024    0.0068386349   291.48876      364069.46    
     36000   36             0.99429706     0.040896903    16.636341      1.491431       21.10616       18.127772     -4.4698192      1050.1144      48.600311      48.462671      48.462671      0.064856726    0.019625829    0.038208155    0.050445727    0.042237396    0.005458716    328.01024      364127.81    
     40000   40             1.0025817     -0.024992131    16.632845      1.5038579      21.107968      18.136702     -4.4751238      155.04667      48.610013      48.455569      48.455569     -0.033545107   -0.021037309   -0.020393977    0.0017578675  -0.0037007653  -0.047532315    365.66387      365298.21    
     44000   44             0.99896674     0.039274966    16.636716      1.4984355      21.105539      18.135152     -4.4688226      334.48196      48.619716      48.467251      48.467251      0.058123555    0.033353991    0.026347351   -0.027516907    0.043285016   -0.017628762    402.45205      365463.05    
     48000   48             1.0015205     -0.043429613    16.632645      1.502266       21.108132      18.134911     -4.4754873      379.68357      48.629419      48.447786      48.447786     -0.050340981   -0.058540856   -0.021407004   -0.035167569   -0.022838584    0.018093096    439.20663      365566.32    
     52000   52             0.99528471    -0.010870478    16.636733      1.4929125      21.106453      18.129646     -4.46972        939.91088      48.639121      48.467909      48.467909     -0.032761541    0.018676294   -0.018526188   -0.021349856   -0.036468725    0.024572397    475.29021      365132.56    
     56000   56             0.99951054    -0.0055952349   16.641427      1.4992512      21.105242      18.140678     -4.4638144     -170.36776      48.648824      48.472414      48.472414      0.013828137   -0.007715473   -0.022898369   -0.0038400404   0.0032565092  -0.0083755907   512.00909      365208.77    
     60000   60             1.0026707      0.05062315     16.635324      1.5039913      21.109406      18.139316     -4.4740814     -9.9038221      48.658526      48.425549      48.425549      0.025908933    0.06169457     0.064265947   -0.0093519309   0.017105996    0.0039784489   547.91837      364730.99    
     64000   64             1.0014695     -0.022937194    16.626236      1.5021897      21.103117      18.128426     -4.476881       1126.5639      48.668229      48.41006       48.41006       0.0024768447   0.028474871   -0.099763297    0.060842647   -0.010243323   -0.012840247    584.24259      364567.38    
     68000   68             1.0038507     -0.031537163    16.631877      1.5057613      21.109872      18.137638     -4.4779951      203.0019       48.677932      48.403795      48.403795     -0.060916155    0.011651543   -0.045346878   -0.0060303543   0.024780948    0.022070141    619.64573      363877.85    
     72000   72             1.0051277      0.067985394    16.631906      1.5076768      21.105368      18.139582     -4.4734623      24.206254      48.687634      48.402912      48.402912      0.073892454    0.1062376      0.023826132    0.021499961    0.031561864    0.0022737408   656.01149      363794.82    
     76000   76             0.99955404    -0.012532908    16.630792      1.4993164      21.105928      18.130108     -4.4751364      1015.9143      48.697337      48.39824       48.39824      -0.0087765983   0.0049558415  -0.033777967    0.01916309     0.021856603   -0.041092106    692.2676       363659.1     
     80000   80             0.99600935    -0.0089775608   16.631738      1.4939995      21.106178      18.125738     -4.47444        1484.3204      48.707039      48.40679       48.40679      -0.011923538    0.0049354172  -0.019944562    0.028455982    0.026121689   -0.015452559    729.50262      364021.81    
     84000   84             1.0014333     -0.007402725    16.639546      1.5021354      21.11161       18.141682     -4.4720633     -129.35716      48.716742      48.411942      48.411942     -0.062797552    0.060176374   -0.019586997   -0.041082805   -0.0011984116   0.052012335    766.57007      364266.8     
     88000   88             0.99898907     0.022903407    16.636742      1.498469       21.108335      18.135211     -4.4715932      554.197        48.726445      48.407516      48.407516      0.024010911    0.0016156145   0.043083696    0.01677839     6.6412404e-06  0.019123647    803.46051      364405.86    
     92000   92             0.99422159    -0.0056986053   16.633188      1.4913178      21.107562      18.124505     -4.4743743      1671.5936      48.736147      48.387959      48.387959     -0.02574483     0.010489522   -0.001840508    0.0010174624   0.02631981     0.037444626    839.9621       364360.95    
     96000   96             0.99886606     0.017841029    16.636599      1.4982845      21.108459      18.134883     -4.4718607      628.01149      48.74585       48.390327      48.390327      0.015090598    0.023338103    0.015094386   -0.00096557048 -0.012670761   -0.0082195892   877.10462      364583.15    
    100000   100            1.0041413     -0.075077029    16.637713      1.5061972      21.107991      18.143911     -4.4702779     -276.76869      48.755552      48.408355      48.408355     -0.10085929    -0.065644734   -0.058727063    0.025599827    0.0066201774   0.014759717    913.99562      364684.25    
    104000   104            0.99967561    -0.041738197    16.631616      1.4994988      21.108009      18.131115     -4.4763929      1055.0763      48.765255      48.382203      48.382203     -0.0027784177  -0.082192416   -0.040243757   -0.024757966   -0.0212472     -0.014381323    950.62837      364675.67    
    108000   108            0.9987703      0.021445904    16.635299      1.4981408      21.10473       18.13344      -4.4694308      837.14659      48.774958      48.390046      48.390046      0.037002653    0.054226518   -0.026891457    0.0095156923  -3.215198e-05   0.024133977    987.56863      364778.59    
    112000   112            1.0019286     -0.02329282     16.638377      1.5028783      21.108597      18.141255     -4.4702202      56.509388      48.78466       48.375337      48.375337     -0.019819277    0.0020673901  -0.052126574    0.0051896533  -0.044949646    0.047101313    1023.854       364638.29    
    116000   116            1.0021765     -0.021074344    16.628733      1.5032501      21.106395      18.131983     -4.4776617      1027.0543      48.794363      48.365543      48.365543     -0.028018714   -0.051219546    0.016015228   -0.013945854   -0.0088255597  -0.036439692    1059.923       364430.76    
    120000   120            1.0028334      0.072842317    16.635528      1.5042355      21.107662      18.139764     -4.4721333      249.81687      48.804065      48.343088      48.343088      0.044846875    0.091369016    0.082311058   -0.037196851   -0.011793306   -0.037999743    1096.4493      364386.64    
    124000   124            1.002552       0.040046296    16.641474      1.5038133      21.11072       18.145287     -4.4692462     -294.97753      48.813768      48.34611       48.34611       0.050757428    0.040560202    0.028821259    0.0050640311  -0.014787613   -0.014556336    1132.7981      364285.94    
    128000   128            1.0005835      0.0048683897   16.633635      1.5008607      21.108142      18.134496     -4.4745074      831.58217      48.823471      48.362441      48.362441      0.048074379   -0.10378582     0.070316606    0.0096902733   0.012233346    0.059431246    1168.743       364063.46    
    132000   132            0.99826083    -0.027553625    16.637901      1.4973766      21.109813      18.135278     -4.4719118      771.7028       48.833173      48.355979      48.355979      0.0059869467  -0.003447717   -0.085200105    0.039975007   -0.004797044   -0.012165892    1204.9352      363926.95    
    136000   136            1.0028142      0.0013503177   16.640284      1.5042066      21.104621      18.14449      -4.4643371     -152.25698      48.842876      48.365678      48.365678      0.033973363   -0.007385626   -0.022536784   -0.020880215   -0.025512961    0.033444656    1241.0907      363785.58    
    140000   140            1.0011863     -0.0015740145   16.634131      1.5017648      21.106498      18.135896     -4.4723664      748.94555      48.852578      48.340869      48.340869      0.00087055436 -0.00054988346 -0.0050427145  -0.015268902   -0.0016090904   0.012800384    1277.8904      363833.64    
    144000   144            0.9977914     -0.0010679995   16.635664      1.4966725      21.108059      18.132336     -4.4723949      1134.4898      48.862281      48.335278      48.335278     -0.0024165968  -0.0077098681   0.0069224663   0.0058379302   0.020269336   -0.0095011751   1314.118       363718.66    
    148000   148            1.0014415      0.023587565    16.633574      1.5021476      21.107086      18.135722     -4.4735118      808.06993      48.871983      48.325294      48.325294     -0.043864529    0.050374974    0.06425225     0.0003813837   0.029444698    0.0046212592   1350.6256      363683.31    
    152000   152            1.0035997     -0.022593251    16.631562      1.5053849      21.105588      18.136947     -4.4740267      702.86996      48.881686      48.331639      48.331639     -0.071964338   -0.015850011    0.020034597   -0.041379189   -0.022017376   -0.011760936    1387.116       363643.4     
    156000   156            1.0024638     -0.038391993    16.631422      1.5036811      21.104369      18.135103     -4.4729466      912.2278       48.891389      48.309568      48.309568     -0.041661627   -0.019871349   -0.053643002   -0.029421822   -0.022271133    0.027181374    1423.4337      363559.56    
    160000   160            0.99521926     0.0081077943   16.640686      1.4928143      21.111391      18.133501     -4.4707044      1097.1939      48.901091      48.322429      48.322429      0.013921235    0.027623567   -0.017221418    0.012869275   -0.0096007399  -0.01168249     1459.5796      363435.33    
    164000   164            1.0020965     -0.02140087     16.633442      1.5031301      21.104356      18.136572     -4.4709146      802.92802      48.910794      48.313902      48.313902     -0.035952599   -0.031049778    0.0027997679  -0.02714184    -0.029618744    0.011647219    1496.2581      363444.75    
    168000   168            1.0002378      0.0040485604   16.640285      1.5003421      21.107104      18.140627     -4.4668186      408.34088      48.920496      48.324598      48.324598      0.0086654409   0.011453488   -0.0079732477   0.010011085   -0.0096674726   0.019115257    1533.353       363550.69    
    172000   172            1.00256       -0.0070720996   16.641822      1.5038254      21.107143      18.145647     -4.4653215     -85.42023       48.930199      48.329559      48.329559     -0.0076161935  -0.0093465937  -0.0042535115   0.0048846935  -0.018290554   -0.027390768    1570.5302      363669.06    
    176000   176            0.99684767    -0.060114893    16.634833      1.4952569      21.103175      18.13009      -4.4683419      1529.8773      48.939902      48.317514      48.317514     -0.064670145   -0.069135961   -0.046538574    0.014891557    0.018246109   -0.050909816    1607.5204      363738.02    
    180000   180            0.99683673    -0.039635485    16.640683      1.4952405      21.106589      18.135924     -4.4659054      952.63585      48.949604      48.31933       48.31933       0.010245507   -0.073995902   -0.05515606    -0.012075468   -0.0098291028   0.0052720743   1644.3934      363776.37    
    184000   184            1.0032605     -0.0093039014   16.640108      1.5048761      21.109085      18.144984     -4.4689779      44.447667      48.959307      48.300994      48.300994     -0.039494744    0.019826129   -0.0082430889   0.02763913     0.00047054129 -0.021684772    1681.0342      363761.18    
    188000   188            1.0013558      0.020856907    16.628222      1.5020191      21.10636       18.130241     -4.4781387      1576.1665      48.969009      48.26329       48.26329       0.061599002    0.049671056   -0.048699336   -0.013809192    0.009164942   -0.007829023    1717.1651      363637.12    
    192000   192            1.0010128      0.036592843    16.632732      1.5015046      21.109104      18.134237     -4.476372       1187.1633      48.978712      48.258241      48.258241      0.054410404    0.043452571    0.011915554   -0.019673354   -0.0093753582   0.0010108411   1753.5053      363560.09    
    196000   196            1.0021577     -0.031751301    16.63528       1.5032219      21.110238      18.138502     -4.4749582      770.42603      48.988415      48.275091      48.275091     -0.023643959   -0.027459126   -0.044150819    0.028443666    0.0064309972  -0.0068758106   1790.8339      363685.47    
    200000   200            0.99906802     0.0023610093   16.635094      1.4985874      21.105502      18.133681     -4.4704084      1284.8514      48.998117      48.272922      48.272922     -0.0077273186  -0.018737241    0.033547587    0.03504455    -0.0235052     -0.010413565    1828.0054      363773.07    
    204000   204            0.9972199     -0.04474921     16.635581      1.4958153      21.10356       18.131396     -4.4679792      1539.7901      49.00782       48.282614      48.282614     -0.082752774   -0.0093683329  -0.042126524    0.025916712    0.014257581    0.018383992    1865.0601      363833       
    208000   208            0.99607227    -0.029240372    16.649453      1.4940938      21.102741      18.143547     -4.4532881      314.99244      49.017522      48.324328      48.324328     -0.0089704198  -0.084463159    0.0057124628   0.029765865    0.013477931   -0.03185157     1902.3434      363932.93    
    212000   212            1.0016514     -0.057597783    16.638152      1.5024624      21.105111      18.140615     -4.4669584      636.24878      49.027225      48.306774      48.306774     -0.060250217   -0.073222362   -0.039320771   -0.0056905685   0.014871645   -0.0060239468   1938.9516      363900.97    
    216000   216            0.99517509    -0.015241062    16.637666      1.4927481      21.103973      18.130414     -4.4663065      1702.4198      49.036928      48.285152      48.285152     -0.0017464191  -0.056120421    0.012143656    0.062409023    0.020185928   -0.033779998    1975.9051      363932.45    
    220000   220            1.0017124      0.0053585042   16.634171      1.5025539      21.106386      18.136725     -4.4722153      1076.2428      49.04663       48.248677      48.248677     -0.021056955    0.014449314    0.022683153    0.021709361   -0.017597344    0.015681965    2012.2933      363859.21    
    224000   224            0.99798634     0.049196293    16.637694      1.4969649      21.106392      18.134659     -4.4686978      1308.7723      49.056333      48.250404      48.250404      0.073593751    0.057754111    0.016241015    0.025816294    0.012594077    0.015356218    2049.311       363899.08    
    228000   228            1.0001347      0.0088392759   16.637617      1.5001874      21.105777      18.137804     -4.4681608      1006.9624      49.066035      48.259217      48.259217      0.010121522    0.021024684   -0.0046283781  -0.0012049332  -0.05271137    -0.02393838     2085.8134      363846.37    
    232000   232            0.99859213    -0.0068224159   16.643125      1.4978736      21.108411      18.140998     -4.4652866      700.28446      49.075738      48.254421      48.254421     -0.02556483    -0.031783499    0.036881082    0.011725205   -0.026439312   -0.058844835    2122.1016      363757.48    
    236000   236            0.99757325    -0.04217256     16.636173      1.4963453      21.106634      18.132518     -4.4704604      1589.848       49.085441      48.253999      48.253999     -0.028120413   -0.10511033     0.0067130608   0.018124136    0.021804655    0.011985885    2159.1284      363794.84    
    240000   240            0.99402753     0.004182181    16.6341        1.4910267      21.105855      18.125127     -4.4717546      2367.5727      49.095143      48.22533       48.22533      -0.039956612   -0.0052827688   0.057785924    0.04446435    -0.015080881    0.0039618335   2196.1036      363821.17    
    244000   244            1.000629       0.012113553    16.631507      1.5009289      21.103862      18.132436     -4.4723545      1639.0246      49.104846      48.225767      48.225767     -0.036795077    0.033967742    0.039167993    0.002924792   -7.6058476e-05 -0.0095869961   2232.6756      363779.71    
    248000   248            1.0031418     -0.01936843     16.634548      1.504698       21.103155      18.139246     -4.4686077      961.50518      49.114548      48.240102      48.240102     -0.017723447   -0.04351467     0.0031328253  -0.012507013    0.029591087    0.0091677743   2269.4157      363765.38    
    252000   252            0.99738195     0.018863506    16.637677      1.4960583      21.107121      18.133736     -4.4694436      1547.0415      49.124251      48.219864      48.219864     -0.023504797    0.011173605    0.068921711    0.016684837   -0.042402508   -0.025802037    2305.8726      363705.65    
    256000   256            0.99843114    -0.024143142    16.626743      1.4976321      21.105872      18.124375     -4.479129       2527.2113      49.133954      48.189243      48.189243     -0.029415866    0.023960295   -0.066973854    0.021809972    0.0025357148   0.025075427    2342.2642      363636.51    
    260000   260            0.99931418    -0.048744527    16.640569      1.4989566      21.103231      18.139526     -4.4626617      995.11471      49.143656      48.236462      48.236462     -0.097801912   -0.042153896   -0.0062777734  -0.0095866476   0.032115485   -0.0047801811   2378.3628      363523.6     
    264000   264            0.99668938    -0.078730079    16.645844      1.4950195      21.106711      18.140863     -4.4608675      878.69104      49.153359      48.25889       48.25889      -0.024990965   -0.14378627    -0.067413001   -0.038892759    0.023305934   -0.024114921    2414.3339      363393.84    
    268000   268            0.99367137    -0.059453687    16.637671      1.4904925      21.107245      18.128163     -4.4695745      2201.0612      49.163061      48.21298       48.21298      -0.012226725   -0.057073355   -0.10906098    -0.029345643   -0.029394787    0.026225618    2450.2111      363252.94    
    272000   272            0.99726842    -0.077302827    16.634916      1.495888       21.104479      18.130804     -4.4695624      1950.8589      49.172764      48.212741      48.212741     -0.087627011   -0.088864414   -0.055417055   -0.039243506    0.0032198804  -0.012031486    2486.5621      363184.34    
    276000   276            1.0002371     -0.011561756    16.635133      1.500341       21.107675      18.135474     -4.4725428      1492.8931      49.182467      48.183084      48.183084     -0.049603249   -0.011200499    0.026118479    0.041128797    0.043218404   -0.0045203042   2522.9495      363121.9     
    280000   280            0.99767776     0.013603397    16.637756      1.496502       21.105924      18.134258     -4.4681682      1637.5549      49.192169      48.183915      48.183915     -0.002944874    0.044436448   -0.00068138361 -0.00077692982 -0.020690548    0.052054563    2559.2472      363047.5     
    284000   284            1.0021169      0.017976329    16.641814      1.5031607      21.106213      18.144975     -4.4643988      559.71492      49.201872      48.196919      48.196919      0.061690806    0.056605471   -0.064367291    0.03162878     0.054593547   -0.0038714595   2596.293       363078.78    
    288000   288            1.0004003      0.028241685    16.640248      1.5005858      21.108539      18.140834     -4.4682913      1005.1119      49.211574      48.172803      48.172803      0.040920809    0.027609015    0.016195231   -0.0072859854   0.011802602    0.020818493    2633.2554      363096.66    
    292000   292            0.99896181     0.06734898     16.633588      1.4984281      21.103509      18.132016     -4.4699213      1929.1785      49.221277      48.150271      48.150271      0.042518993    0.10549071     0.054037239    0.0077365979   0.0059379431  -0.011315867    2670.3112      363125.74    
    296000   296            1.0054936     -0.024581614    16.633484      1.5082256      21.106179      18.14171      -4.472695       955.93748      49.23098       48.152944      48.152944     -0.028659045   -0.050188321    0.005102525    0.012250843    0.0061859838  -0.02200088     2706.8041      363077.53    
    300000   300            1.0005897      0.037458546    16.634747      1.50087        21.107254      18.135616     -4.472508       1600.8301      49.240682      48.153709      48.153709      0.033037061    0.038663978    0.040674598   -0.0063575926  -0.0423669      0.018316723    2742.8926      362976.12    
    304000   304            0.99736887     0.014253111    16.633521      1.4960387      21.107722      18.12956      -4.4742007      2241.6811      49.250385      48.13146       48.13146       0.048042977    0.007251366   -0.012535012   -0.041868074   -0.023633896    0.02054139     2778.5493      362820.05    
    308000   308            1.0010424     -0.0039935561   16.637638      1.501549       21.104513      18.139187     -4.4668755      1274.8996      49.260087      48.157909      48.157909     -0.0084958406  -0.0096869292   0.0062021016   0.0022340385  -0.012308652    0.061725125    2814.1485      362659.69    
    312000   312            1.0058386      0.0024602687   16.637892      1.5087431      21.107293      18.146635     -4.469401       531.89584      49.26979       48.14114       48.14114       0.031993003   -0.042638326    0.018026129   -0.015847341    0.023088938    0.0054162877   2849.8561      362516.31    
    316000   316            1.0019413      0.020786979    16.630359      1.5028973      21.108071      18.133257     -4.4777122      1923.377       49.279493      48.109188      48.109188     -0.016014699    0.082487339   -0.0041117043   0.02675358     0.012823365    0.0087904987   2886.134       362447.28    
    320000   320            1.0013147     -0.031274444    16.626881      1.5019574      21.102244      18.128838     -4.4753636      2396.3221      49.289195      48.118001      48.118001     -0.038373611   -0.0120246     -0.043425121    0.0058678241   0.0036661072   0.022155957    2921.9584      362322.84    
    324000   324            1.0027954      0.027278214    16.638153      1.5041784      21.108556      18.142332     -4.4704029      1033.6633      49.298898      48.125488      48.125488      0.061169774    0.0036849993   0.016979869    0.02072116     0.028110654    0.0033808967   2958.5795      362298.15    
    328000   328            1.0013703      0.047112515    16.637563      1.5020407      21.107959      18.139604     -4.4703956      1333.6638      49.3086        48.106694      48.106694      0.051304878    0.038555933    0.051476733    7.4805775e-05  0.0012491589   0.031243325    2994.8503      362230.79    
    332000   332            0.99943922     0.0094487587   16.63257       1.4991442      21.1063        18.131714     -4.4737298      2162.9108      49.318303      48.107631      48.107631     -0.04980345     0.042824927    0.0353248      0.0007911626   0.0037912347  -0.025474391    3030.5739      362098.81    
    336000   336            0.99755968     0.0102073      16.639626      1.4963249      21.106752      18.135951     -4.4671252      1749.0016      49.328006      48.11944       48.11944       0.028632411   -0.0020599242   0.0040494142  -0.032951605   -0.015585271    0.066304012    3066.3936      361980.46    
    340000   340            0.9994955     -0.046481894    16.645223      1.4992286      21.107477      18.144452     -4.4622534      898.07207      49.337708      48.136522      48.136522      0.005152175   -0.081448031   -0.063149824   -0.024178287    0.031449626    0.023929727    3101.7788      361813.37    
    344000   344            1.0005287      0.00042453411  16.634784      1.5007784      21.105771      18.135562     -4.4709872      1829.4188      49.347411      48.110213      48.110213     -0.00067258757  0.013607394   -0.011661204   -0.0088789169  -0.033018592   -0.043552216    3138.0562      361752.19    
    348000   348            1.0001312      0.0021122092   16.632672      1.5001822      21.108388      18.132854     -4.4757161      2127.292       49.357113      48.078401      48.078401     -0.040814562    0.016584357    0.030566832   -0.044967292   -0.019458264   -0.031349022    3174.0019      361653.8     
    352000   352            0.99586813     0.036791239    16.632143      1.4937876      21.107872      18.12593      -4.4757296      2857.2265      49.366816      48.072445      48.072445      0.066113552    0.020286535    0.023973631   -0.03974226     0.021084179   -0.030261265    3209.9109      361552.69    
    356000   356            1.0003201      0.088188566    16.641906      1.5004655      21.108744      18.142372     -4.4668382      1192.2176      49.376519      48.088694      48.088694      0.077014475    0.098106778    0.089444444    0.034123217    0.054922052   -0.0016563937   3246.467       361525.11    
    360000   360            1.0025703      0.045700055    16.632818      1.5038408      21.105941      18.136659     -4.473123       1798.2225      49.386221      48.094447      48.094447      0.016424007    0.084502613    0.036173545   -0.029022168    0.020443176    0.029290879    3282.7857      361471.18    
    364000   364            0.9953791     -0.050211947    16.631769      1.4930541      21.103272      18.124823     -4.4715031      3031.5537      49.395924      48.101064      48.101064     -0.058212133   -0.025840612   -0.066583096   -0.009871893   -0.042584362   -0.029244332    3319.4496      361455.24    
    368000   368            0.99701591     0.033224539    16.645256      1.4955093      21.106928      18.140765     -4.4616716      1418.3872      49.405626      48.097011      48.097011      0.037119758    0.013142371    0.049411488   -0.0065814824   0.034655808    0.0053353206   3355.4355      361365.81    
    372000   372            0.99665702     0.0024771361   16.639114      1.4949709      21.109081      18.134085     -4.469967       2123.6449      49.415329      48.084733      48.084733     -0.031313085    0.026614816    0.012129677   -0.023810805    0.0091767818  -0.022692964    3390.5915      361189.14    
    376000   376            0.99336452    -0.0012080186   16.637124      1.4900322      21.107747      18.127156     -4.470623       2853.6177      49.425032      48.081415      48.081415     -0.022679649    0.038898452   -0.019842859   -0.00097589427 -0.0085101617  -0.017359449    3425.5893      360998.81    
    380000   380            0.99774347     0.012743419    16.64029       1.4966006      21.107724      18.136891     -4.4674339      1876.3173      49.434734      48.07094       48.07094       0.058670184   -0.025911992    0.0054720646   0.050309209    0.014827689    0.015219211    3461.154       360870.85    
    384000   384            0.99856031    -0.045392617    16.645402      1.4978259      21.108244      18.143228     -4.4628424      1246.9644      49.444437      48.097429      48.097429     -0.066909358    0.018008894   -0.087277389    0.041825136    0.02268631     0.0090159444   3496.2788      360699.43    
    388000   388            1.0021954     -0.0053329588   16.628888      1.5032784      21.100505      18.132166     -4.4716173      2400.5391      49.454139      48.063341      48.063341      0.0073208448  -0.0093663656  -0.013953355   -0.0084307299  -0.0067795878  -0.0238888      3532.9838      360692.15    
    392000   392            0.99854033    -0.04524475     16.633679      1.4977959      21.104343      18.131475     -4.4706642      2492.2044      49.463842      48.066795      48.066795     -0.081319401   -0.0054877937  -0.048927056   -0.017297182    0.014657794    0.041182423    3568.7586      360590.28    
    396000   396            1.0011357     -0.042898802    16.641686      1.5016889      21.106029      18.143375     -4.4643429      1292.8246      49.473545      48.075997      48.075997     -0.047748325   -0.047043315   -0.033904766   -0.043187023   -0.02436431    -0.0064043454   3604.0249      360438.89    
    400000   400            1.0001838     -0.026720321    16.636203      1.500261       21.106351      18.136464     -4.4701475      2021.7378      49.483247      48.059488      48.059488     -0.0079899427  -0.046552693   -0.025618326    0.0061673757   0.0041736641  -0.031937031    3639.219       360282.68    
    404000   404            0.99687905    -0.047433397    16.640935      1.495304       21.107021      18.136239     -4.4660855      2065.4996      49.49295       48.057333      48.057333     -0.061818176   -0.040340424   -0.040141592    0.042714175    0.017460871    0.010347834    3675.2209      360208.04    
    408000   408            1.0033574      0.014096873    16.640273      1.5050214      21.106756      18.145295     -4.4664831      1157.6403      49.502652      48.046542      48.046542      0.079069228   -0.034556661   -0.002221947   -0.040507464    0.0017294919  -0.038811903    3711.2834      360140.03    
    412000   412            1.0028852      0.055508417    16.644034      1.5043132      21.108922      18.148347     -4.4648887      865.25486      49.512355      48.027684      48.027684      0.03668292     0.071622509    0.058219821    0.031728787   -0.0021495044   0.0049576205   3746.8304      360023.11    
    416000   416            0.99922609    -0.0015227876   16.634389      1.4988245      21.107531      18.133214     -4.4731412      2436.0401      49.522058      48.013771      48.013771      0.014426093   -0.031744125    0.012749669   -0.0051630734  -0.033120863    0.024359045    3783.3423      359999.57    
    420000   420            0.9971406      0.011194448    16.631776      1.4956963      21.105971      18.127473     -4.4741943      3044.41        49.53176       48.001651      48.001651      0.016770092    0.031271075   -0.014457821    0.011801307   -8.462889e-05  -0.064586687    3818.9052      359886.35    
    424000   424            0.99898254    -0.037797366    16.637774      1.4984592      21.108933      18.136233     -4.4711591      2166.8852      49.541463      48.010758      48.010758     -0.10248035    -0.0010289331  -0.009882811   -0.020682362    0.0048673602  -0.026292938    3855.7025      359889.81    
    428000   428            1.0003875     -0.078274896    16.639859      1.5005665      21.107184      18.140425     -4.4673253      1757.4289      49.551165      48.03939       48.03939      -0.072027372   -0.060338291   -0.10245903    -0.020176125    0.037528962    0.012507858    3892.0456      359850.53    
    432000   432            0.99774859     0.014924733    16.630487      1.4966083      21.104868      18.127096     -4.474381       3144.0436      49.560868      48.001406      48.001406      0.022215045    0.018426814    0.0041323416   0.010844756    0.020968111   -0.0062212098   3927.8882      359765.47    
    436000   436            0.99938243    -0.029993304    16.631074      1.499059       21.103074      18.130133     -4.4719996      2852.5712      49.570571      48.014952      48.014952     -0.016056116   -0.034117121   -0.039806674    0.0047962314  -0.016799508   -0.054221888    3963.948       359701       
    440000   440            1.0002372      0.026720954    16.63476       1.5003412      21.104653      18.135101     -4.4698932      2363.4394      49.580273      47.99264       47.99264       0.043936524   -0.008436843    0.044663181   -0.026283874    0.039229033    0.03688227     3999.9943      359635.85    
    444000   444            0.99619054    -0.030942867    16.634716      1.4942712      21.110394      18.128987     -4.4756776      3010.8175      49.589976      47.970784      47.970784     -0.11432543    -0.069927788    0.09142462     0.030482676    0.011843052    0.021851963    4035.9386      359562.13    
    448000   448            0.99739127     0.059894659    16.62791       1.4960723      21.106509      18.123983     -4.4785984      3543.7658      49.599678      47.943335      47.943335      0.039746977    0.062980251    0.076956749   -0.0062353857  -0.0011617332   0.016318239    4071.9811      359497.76    
    452000   452            1.0053203      0.0061820328   16.630778      1.5079657      21.106085      18.138744     -4.4753073      2051.1199      49.609381      47.967802      47.967802     -0.014121839    0.032748123   -8.018593e-05  -0.01037159     0.021380805    0.015616129    4107.6339      359399.79    
    456000   456            0.99681488     0.018804583    16.638283      1.4952077      21.108717      18.133491     -4.4704341      2609.6125      49.619084      47.975991      47.975991     -0.035530936    0.057927386    0.034017301   -0.043273495    0.017192462   -0.013009045    4143.8243      359349.54    
    460000   460            0.99953078     0.059220774    16.627051      1.4992815      21.106857      18.126333     -4.4798054      3363.7359      49.628786      47.925517      47.925517      0.064212801    0.11031605     0.0031334727  -0.00061482063 -0.0091844792   0.0022804283   4179.7475      359276.56    
    464000   464            1.0007602     -0.035692489    16.633604      1.5011257      21.106682      18.13473      -4.4730777      2523.2069      49.638489      47.944703      47.944703     -0.052422277   -0.029938866   -0.024716323    0.0086306151  -0.045960229   -0.0040978371   4215.2236      359166.12    
    468000   468            1.001741      -0.052879922    16.638357      1.5025968      21.107253      18.140954     -4.4688962      1905.427       49.648191      47.975516      47.975516     -0.025708474   -0.074893155   -0.058038137   -0.0032123178  -0.044111213    0.015694768    4250.67        359054.46    
    472000   472            0.99989296    -0.04114849     16.629424      1.4998248      21.1038        18.129249     -4.4743759      3125.1663      49.657894      47.951427      47.951427      0.0048212239  -0.033612276   -0.094654419    0.0086011382  -0.0015336537   0.010073675    4286.7269      358995.21    
    476000   476            0.99630506     0.0095666956   16.633621      1.494443       21.107623      18.128064     -4.4740023      3267.0786      49.667596      47.927904      47.927904      0.024493732    0.015196432   -0.010990078    0.0057381183  -0.021155352    0.00015730174  4323.4937      358995.31    
    480000   480            1.0042975     -0.051649047    16.635515      1.5064315      21.10533       18.141946     -4.4698157      1864.6422      49.677299      47.956455      47.956455     -0.060007824   -0.032150219   -0.062789098    0.00099648713  0.019613485   -0.0065949595   4359.7399      358951.92    
    484000   484            0.99951089    -0.046870764    16.634419      1.4992517      21.107372      18.133671     -4.4729526      2733.1639      49.687002      47.925109      47.925109     -0.062028005   -0.097352127    0.018767839    0.0086407029   0.023115653   -0.027974043    4396.7798      358973.45    
    488000   488            0.99723378     0.064332933    16.63466       1.4958361      21.105941      18.130496     -4.4712808      3078.6812      49.696704      47.933645      47.933645      0.13152001     0.025524743    0.035954048    0.040885407    0.032437264    0.015904649    4432.8293      358913.84    
    492000   492            1.0001099     -0.011561433    16.644762      1.5001502      21.107521      18.144912     -4.4627593      1621.1374      49.706407      47.945607      47.945607     -0.046012753    0.036342127   -0.025013674   -0.0096011137   0.024450768    0.038809898    4469.4167      358897.8     
    496000   496            0.99888425    -0.015036867    16.636778      1.4983118      21.11034       18.135089     -4.4735621      2647.5988      49.716109      47.93078       47.93078       0.0024509016   0.0094572883  -0.057018791   -0.032881847   -0.041878962   -0.017565765    4505.6769      358855.36    
    500000   500            0.99861552    -0.050895199    16.63508       1.4979087      21.10687       18.132988     -4.4717903      2882.6806      49.725812      47.917204      47.917204     -0.11239266     0.031896674   -0.072189613   -0.0052457734   0.0046467136   0.019647248    4541.9154      358811.31    
    504000   504            1.0039079      0.013162851    16.6347        1.5058472      21.10609       18.140547     -4.4713898      2128.1408      49.735515      47.923765      47.923765      0.0033727281   0.033815228    0.0023005967  -0.017873363    0.025495461   -0.031070603    4579.015       358834.88    
    508000   508            1.0070039      0.0019633045   16.635409      1.5104911      21.104218      18.1459       -4.4688094      1599.2077      49.745217      47.929664      47.929664      0.014093522   -0.023231758    0.01502815    -0.014417657   -0.0096280361  -0.022073066    4615.4623      358806.77    
    512000   512            0.99519334    -0.045722619    16.641377      1.4927754      21.11089       18.134153     -4.4695123      2823.6477      49.75492       47.919535      47.919535     -0.040935597   -0.057689552   -0.038542706    0.0052999432   0.0064613089  -0.029524226    4651.6853      358761.23    
    516000   516            0.99499535    -0.0022661686   16.644099      1.4924785      21.108065      18.136578     -4.4639657      2595.2425      49.764622      47.934016      47.934016      0.025753587   -0.029454937   -0.0030971552  -0.040917937    0.0045907881  -0.0033672574   4688.0318      358725.29    
    520000   520            0.99973724    -0.042129242    16.646328      1.4995912      21.102916      18.145919     -4.4565886      1657.8843      49.774325      47.951533      47.951533     -0.014847042   -0.034318674   -0.077222009   -0.051527023    0.0068059576   0.025829671    4724.7649      358718.69    
    524000   524            0.99523569    -0.0032203766   16.638832      1.492839       21.107443      18.131671     -4.468611       3138.5252      49.784028      47.899273      47.899273     -0.030273493    0.031799799   -0.011187436   -0.02567351    -0.01510647    -0.0069277424   4761.4988      358711.69    
    528000   528            1.0019887      0.016221593    16.630639      1.5029684      21.104947      18.133607     -4.4743083      2960.1563      49.79373       47.887259      47.887259     -0.021507403    0.038680407    0.031491774    0.052434572    0.0032730902  -0.003674339    4797.856       358676.08    
    532000   532            1.0013406     -0.067368931    16.639614      1.5019963      21.103188      18.14161      -4.4635742      2160.1166      49.803433      47.929894      47.929894     -0.18031776    -0.04203709     0.020248057    0.0064705075   0.011781636    0.042852604    4834.9431      358694.61    
    536000   536            1.0003839     -0.036040593    16.644383      1.5005612      21.107769      18.144944     -4.4633855      1838.5863      49.813135      47.915777      47.915777      0.023715034   -0.069236564   -0.062600247   -0.0073090174   0.047071993   -0.011290772    4871.3737      358663.98    
    540000   540            0.9984707     -0.059600279    16.634597      1.4976914      21.10318       18.132289     -4.4685823      3155.9343      49.822838      47.893794      47.893794     -0.084545261   -0.059466379   -0.034789195   -0.020183613   -0.005440474    0.0050846812   4907.1474      358585.25    
    544000   544            0.99990935    -0.0085546831   16.639153      1.4998494      21.110908      18.139002     -4.471755       2488.065       49.832541      47.871072      47.871072     -0.041299707   -0.035899056    0.051534714    0.012690916   -0.0033630168  -0.0068442526   4943.3108      358535.43    
    548000   548            1.0040137     -0.03058004     16.641423      1.5060059      21.106018      18.147429     -4.4645951      1643.958       49.842243      47.887847      47.887847      0.0044055294  -0.055678438   -0.040467212    0.0087211083   0.030920016    0.013300031    4979.7834      358508.06    
    552000   552            0.99721317     0.020530509    16.639134      1.4958052      21.105339      18.134939     -4.4662046      2944.2331      49.851946      47.86753       47.86753       0.01084758     0.06608368    -0.015339734   -0.010639269   -0.00058702938 -0.016607758    5015.6939      358440.39    
    556000   556            0.99981898     0.034776972    16.634743      1.4997138      21.108828      18.134457     -4.4740848      3013.7382      49.861648      47.846648      47.846648     -0.020665874    0.05258285     0.07241394     0.027681477   -0.016083782   -0.0093792432   5050.7942      358315.7     
    560000   560            1.0005165     -0.055594178    16.638118      1.5007601      21.107143      18.138878     -4.4690245      2580.6634      49.871351      47.86106       47.86106      -0.067675298    0.0041572589  -0.10326449     0.0044863886   0.018713896   -0.019376959    5086.5223      358236.5     
    564000   564            0.99908837    -0.0098140013   16.63469       1.4986179      21.10421       18.133308     -4.46952        3171.6004      49.881054      47.855107      47.855107     -0.050533617    0.029196742   -0.0081051284   0.0032817132   0.014823124   -0.011541519    5122.9108      358204.09    
    568000   568            1.0005833      0.014040808    16.629452      1.5008602      21.103663      18.130312     -4.4742113      3498.4188      49.890756      47.844487      47.844487     -0.023875625    0.01313541     0.05286264    -0.0152565      0.012397944    0.0043954742   5158.6666      358127.71    
    572000   572            0.99685544    -0.0010595772   16.648751      1.4952686      21.107342      18.14402      -4.4585905      2114.2351      49.900459      47.875014      47.875014     -0.038412161    0.011888031    0.023345398    0.02400887     0.022572211    0.006139346    5194.3809      358049.04    
    576000   576            0.9974401     -0.090072333    16.640205      1.4961456      21.10889       18.136351     -4.4686848      2920.2992      49.910161      47.856418      47.856418     -0.071992577   -0.11536317    -0.08286125     0.048842052    0.014817958    0.008988428    5230.011       357965.2     
    580000   580            0.99961677    -0.040367784    16.635273      1.4994105      21.105965      18.134684     -4.4706921      3111.139       49.919864      47.847256      47.847256     -0.057252034   -0.059802085   -0.0040492312  -0.020053335   -0.022030484    0.011628101    5265.13        357847.28    
    584000   584            0.9994975      0.023018591    16.636686      1.4992316      21.103433      18.135918     -4.466747       3004.9299      49.929567      47.829612      47.829612      0.082042824   -0.031679174    0.018692123   -0.020126747    0.023135851   -0.020405378    5301.208       357795.23    
    588000   588            0.99978173    -0.012992794    16.629177      1.499658       21.101789      18.128835     -4.4726122      3750.965       49.939269      47.813238      47.813238     -0.023378316   -0.0051217813  -0.010478284    0.013509538    0.01285821     0.005709414    5337.0111      357724.97    
    592000   592            1.0014867      0.050841577    16.633568      1.5022154      21.106518      18.135783     -4.4729497      3058.8299      49.948972      47.799682      47.799682      0.037050248    0.058978812    0.056495671    0.00086423389 -0.0066230075  -0.041525837    5372.5745      357639.21    
    596000   596            1.0051249     -0.031209995    16.638507      1.5076727      21.106614      18.146179     -4.4681075      2013.2571      49.958674      47.831837      47.831837     -0.051681022   -0.075233241    0.03328428     0.015656137    0.024733533    0.034453048    5408.0872      357550.79    
    600000   600            0.99960844    -0.0024494275   16.635924      1.499398       21.105734      18.135322     -4.4698093      3146.3122      49.968377      47.816693      47.816693      0.028142633    0.00021759407 -0.03570851     0.0059232593   0.015625943    0.0021132593   5444.2594      357506.37    
    604000   604            0.99863885     0.0089427542   16.63281       1.4979437      21.108153      18.130754     -4.4753426      3634.4506      49.97808       47.783155      47.783155      0.0096989811   0.012933723    0.0041955584   0.023583843   -0.0071287358   0.0062863361   5480.7642      357483.75    
    608000   608            1.0064565      0.030737257    16.63514       1.50967        21.10792       18.14481      -4.4727801      2213.9058      49.987782      47.78963       47.78963       0.060938545   -0.0035753183   0.034848544   -0.0036625723  -0.01381581    -0.023632984    5516.5625      357415.18    
    612000   612            1.0027498      0.0501909      16.634224      1.50411        21.105978      18.138334     -4.4717534      2897.443       49.997485      47.770892      47.770892      0.07201903     0.037415178    0.041138493   -0.0080401533   0.0024967805  -0.0053784955   5552.8724      357379.96    
    616000   616            1.0009106      0.047143522    16.633439      1.5013513      21.10771       18.13479      -4.4742705      3280.7428      50.007187      47.762332      47.762332      0.043418641    0.020887614    0.077124311   -0.018284177   -0.013822722    0.019216097    5589.5403      357367.62    
    620000   620            0.99803131     0.031219755    16.635117      1.4970324      21.104769      18.132149     -4.4696523      3570.7439      50.01689       47.779374      47.779374      0.017016435    0.065376955    0.011265875    0.017577847   -0.022782118    0.0071583381   5626.3948      357366.82    
    624000   624            1.000084      -0.048420782    16.643282      1.5001113      21.109799      18.143393     -4.4665176      2438.7734      50.026593      47.8139        47.8139       -0.081083834    0.0018885114  -0.066067025    0.022852499   -0.031582501   -0.0084504861   5662.693       357330.45    
    628000   628            1.0011675     -0.058314859    16.643183      1.5017366      21.107242      18.14492      -4.4640592      2302.3353      50.036295      47.81017       47.81017      -0.026685542   -0.085667143   -0.062591893    0.06239203     0.0096677539  -0.022991078    5699.6263      357333.89    
    632000   632            1.0005859      0.014954649    16.631249      1.5008643      21.106267      18.132113     -4.4750174      3634.5591      50.045998      47.747736      47.747736      0.011793542    0.0072414158   0.025828989    0.051735012    0.018951938   -0.036371491    5735.9866      357301.14    
    636000   636            1.0005736     -0.0040699116   16.635344      1.5008457      21.106123      18.13619      -4.4707781      3236.9225      50.0557        47.783561      47.783561     -0.016297262    0.013862148   -0.009774621   -0.0040458106   0.035815625    0.019282573    5772.0083      357247.38    
    640000   640            1.0008481      0.015935944    16.643396      1.5012576      21.109534      18.144653     -4.4661379      2389.6177      50.065403      47.77531       47.77531      -0.0065072565   0.025455248    0.02885984    -0.039190735   -0.021903916    0.0071655464   5808.4722      357221.04    
    644000   644            1.0016426      0.054746649    16.635327      1.5024493      21.104292      18.137777     -4.4689644      3114.6158      50.075106      47.744599      47.744599      0.027006527    0.11315971     0.024073715   -0.0047196498   0.020894813    0.031308541    5844.2914      357155.17    
    648000   648            0.99874425    -0.0049911793   16.630059      1.4981018      21.107127      18.128161     -4.4770681      4119.8813      50.084808      47.725987      47.725987     -0.011936292    0.0075875935  -0.010624839    0.017254628   -0.014175122    0.0033129644   5880.9822      357142.61    
    652000   652            1.0007131     -0.035968793    16.631645      1.5010551      21.104352      18.1327       -4.4727069      3674.2706      50.094511      47.736833      47.736833     -0.0095536651  -0.040248432   -0.058104281    0.022442636    0.017991793   -0.013974723    5917.319       357108.38    
    656000   656            1.001502       0.00036481778  16.639184      1.5022383      21.105982      18.141422     -4.4667979      2800.2053      50.104213      47.746208      47.746208     -0.045533532    0.023536662    0.023091324   -0.026262293    0.02053522    -0.045638885    5953.7494      357079.75    
    660000   660            0.99470087    -0.065166681    16.636714      1.4920367      21.104972      18.12875      -4.4682588      4119.221       50.113916      47.746827      47.746827     -0.090321426   -0.020412238   -0.08476638     0.014240844   -0.011982749    0.034172973    5989.8214      357029.66    
    664000   664            0.99955294    -0.0014562747   16.633683      1.4993148      21.105577      18.132998     -4.4718943      3703.8838      50.123619      47.742636      47.742636     -0.014766052    0.037060663   -0.026663435    0.0088976073   0.010257987   -0.027082559    6025.8177      356975.25    
    668000   668            1.0019264      0.0082224221   16.639254      1.5028749      21.105808      18.142129     -4.4665539      2788.1374      50.133321      47.741054      47.741054     -0.066350338    0.06350061     0.027516995    0.0019375787   0.02868529     0.017058929    6062.24        356946.15    
    672000   672            0.99915106     0.015181655    16.638307      1.498712       21.107218      18.137019     -4.468912       3332.0951      50.143024      47.718805      47.718805      0.029448444    0.0065823811   0.0095141388   0.0025513777   0.0014385194   0.0064980267   6099.4172      356961.13    
    676000   676            0.99553345     0.0052763861   16.632093      1.4932856      21.102483      18.125378     -4.4703899      4544.7231      50.152726      47.722504      47.722504      0.0075195854  -0.0063899545   0.014699527   -0.032276341   -0.046617158   -0.014049092    6136.6302      356977.58    
    680000   680            0.99703577     0.017439021    16.634985      1.4955391      21.104572      18.130524     -4.469587       4037.3889      50.162429      47.710855      47.710855      0.0038967586   0.036880802    0.011539504    0.031775989    0.015522508   -0.0012209461   6173.96        357000.16    
    684000   684            1.0007843      0.039696012    16.637964      1.5011618      21.111428      18.139126     -4.4734641      3175.9453      50.172132      47.699394      47.699394     -0.0061156626   0.05108736     0.07411634    -0.013469706    0.031068129    0.012129545    6211.3729      357026.81    
    688000   688            1.0004232      0.013083328    16.633387      1.5006202      21.107086      18.134007     -4.473699       3720.3317      50.181834      47.695196      47.695196      0.032296539   -0.0020585425   0.0090119866   0.011958493   -0.024257497    0.010080016    6248.3795      357029.5     
    692000   692            0.99672854    -0.005894534    16.629731      1.4950782      21.104317      18.124809     -4.4745866      4682.9377      50.191537      47.684369      47.684369     -0.0092589897   0.032957312   -0.041381925    0.01801438     0.0081487115  -0.028831353    6285.5414      357040.55    
    696000   696            0.99972542    -0.009779471    16.638298      1.4995735      21.105937      18.137872     -4.4676388      3364.231       50.201239      47.718879      47.718879      0.017688598   -0.024713117   -0.022313894   -0.05997453     0.026255342   -0.014283572    6322.8377      357058.64    
    700000   700            0.99844172    -0.020595622    16.638929      1.497648       21.1065        18.136577     -4.4675715      3516.8519      50.210942      47.708217      47.708217      0.0044916217  -0.016677552   -0.049600936    0.0051507237   0.064706089    0.015216641    6358.9307      357008.54    
    704000   704            1.0022628      0.0033847538   16.632248      1.5033796      21.105429      18.135628     -4.4731809      3634.0404      50.220645      47.666526      47.666526      0.0029579856  -0.016944817    0.024141093   -0.01167593     0.028942549    0.01475101     6395.7168      356997.28    
    708000   708            1.0026979      0.037492293    16.6408        1.5040322      21.111831      18.144833     -4.4710307      2710.5968      50.230347      47.657829      47.657829      0.04613381     0.024277906    0.042065163    0.034868656   -0.0087949534   0.010547163    6432.4066      356980.39    
    712000   712            1.0021709      0.01791076     16.629133      1.5032417      21.106829      18.132375     -4.4776961      4007.1629      50.24005       47.647293      47.647293      0.014699019   -0.02495791     0.063991171   -0.0050141084  -0.046708016    0.023320095    6468.8627      356950.39    
    716000   716            1.0072772     -0.043206745    16.621354      1.5109011      21.100691      18.132255     -4.4793366      4038.9156      50.249752      47.643198      47.643198     -0.070134699   -0.084978323    0.025492786   -0.0094150622  -0.016329843   -0.011175739    6505.8498      356949.45    
    720000   720            1.0019962     -0.034741231    16.644765      1.5029796      21.107844      18.147745     -4.4630789      2472.1625      50.259455      47.705373      47.705373     -0.055460368   -0.0039324383  -0.044830888    0.0084885831  -0.0110477     -0.035647888    6543.2286      356969.47    
    724000   724            0.99987058    -0.038982195    16.640002      1.4997912      21.107866      18.139794     -4.4678633      3307.6556      50.269158      47.675078      47.675078      0.0031488069  -0.055737026   -0.064358365    0.016970923   -0.0070122903  -0.043201351    6580.0543      356958.86    
    728000   728            0.99751086     0.048331373    16.640149      1.4962517      21.106748      18.136401     -4.4665986      3675.538       50.27886       47.683509      47.683509      0.061175718    0.012332767    0.071485633   -0.03335629    -0.0054465364  -0.011621575    6616.9432      356951.36    
    732000   732            0.99977956    -0.039624213    16.63801       1.4996547      21.106266      18.137665     -4.4682553      3565.6928      50.288563      47.677707      47.677707     -0.042168763   -0.044244608   -0.032459268    0.022631364   -0.0017312831   0.040113532    6653.1575      356907.36    
    736000   736            0.99874061    -0.0011145257   16.629514      1.4980963      21.105553      18.12761      -4.4760386      4615.7743      50.298265      47.631586      47.631586     -0.013891861   -0.0022522173   0.012800501   -0.0042048759  -0.0037491598  -0.024420585    6690.0084      356897.4     
    740000   740            1.0016841     -0.03653018     16.633058      1.5025115      21.105394      18.13557      -4.4723359      3819.6507      50.307968      47.640819      47.640819     -0.029516306   -0.026418936   -0.053655299    0.012408726   -0.024094667   -0.0086637902   6726.6214      356874.53    
    744000   744            1.0007825      0.018587973    16.636421      1.5011592      21.10546       18.13758      -4.4690394      3633.4815      50.317671      47.649099      47.649099      0.024153279    0.047252758   -0.01564212    -0.05563755    -0.03583806    -0.035904336    6763.1756      356848.42    
    748000   748            0.99745188    -0.0038183374   16.642093      1.4961632      21.106935      18.138256     -4.4648418      3584.4304      50.327373      47.64352       47.64352       0.0046306206   0.014194681   -0.030280314    0.02965241     0.030440918   -0.017982446    6800.4227      356858.54    
    752000   752            0.9986741      0.07293037     16.64013       1.4979965      21.105308      18.138127     -4.4651776      3618.0021      50.337076      47.623011      47.623011      0.090468338    0.062056135    0.066266636    0.0037225487   0.036413393    0.015698096    6837.9412      356882.34    
    756000   756            1.0010201     -0.021017789    16.634508      1.5015154      21.106398      18.136023     -4.47189        3853.3867      50.346778      47.611475      47.611475     -0.03931384    -0.01002035    -0.013719177   -0.018867989    0.032035326   -0.027706616    6874.8649      356874.6     
    760000   760            1.0021393      0.016506935    16.624824      1.5031943      21.102497      18.128018     -4.4776732      4693.5999      50.356481      47.588837      47.588837      0.0029565039   0.020614661    0.025949639    0.013971948   -0.0051141483  -0.025239642    6911.9991      356877.43    
    764000   764            1.0055864     -0.03805731     16.632598      1.5083649      21.105274      18.140963     -4.4726755      3386.5158      50.366184      47.610585      47.610585     -0.009992807   -0.047725238   -0.056453884    0.025361634   -0.0060345693  -0.015076866    6949.1269      356879.51    
    768000   768            1.0005159      0.0051064946   16.639138      1.5007592      21.107712      18.139897     -4.4685739      3515.9902      50.375886      47.605441      47.605441     -0.019924709   -0.0063797677   0.04162396     0.0032917102   0.0070649576  -0.016194889    6986.076       356872.05    
    772000   772            0.99707809    -0.0024029741   16.633077      1.4956025      21.109825      18.12868      -4.4767483      4685.7605      50.385589      47.598395      47.598395     -0.028245284    0.029339682   -0.0083033201   0.025197715   -0.0065046821   0.039641546    7022.5946      356842.41    
    776000   776            1.0007714     -0.036818873    16.633563      1.5011425      21.107273      18.134706     -4.4737101      4088.0605      50.395291      47.5946        47.5946       -0.026880891   -0.020884863   -0.062690866    0.012733858   -0.017483586   -0.043181399    7058.8295      356798.36    
    780000   780            0.99465483     0.029790464    16.642703      1.4919677      21.10922       18.13467      -4.466517       4111.6363      50.404994      47.621127      47.621127      0.027449389    0.018350229    0.043571773   -0.0049358174  -0.01469867     0.0096486168   7095.3685      356769.68    
    784000   784            1.002366      -0.06195386     16.636646      1.5035344      21.10568       18.140181     -4.4690336      3566.8246      50.414696      47.612307      47.612307     -0.055396792   -0.06355286    -0.066911929    0.039695238    0.026814472    0.037765064    7131.0582      356698.44    
    788000   788            0.99821888     0.034469648    16.62843       1.4973137      21.104824      18.125744     -4.4763936      5066.5655      50.424399      47.578094      47.578094      0.0592654     -0.017443033    0.061586577   -0.021334494    0.018482742   -0.0080402947   7166.8604      356633.16    
    792000   792            0.99938443     0.034967986    16.631544      1.499062       21.103982      18.130606     -4.4724387      4588.1722      50.434102      47.594955      47.594955      0.094257215   -0.032276754    0.042923496   -0.027045927    0.025201335    0.032020685    7203.5793      356613.56    
    796000   796            1.0002695      0.010891966    16.640014      1.5003896      21.106506      18.140404     -4.4664919      3604.1025      50.443804      47.617336      47.617336      0.022845999   -0.0022443316   0.012074231    0.016634801   -0.035474146    0.01745666     7239.5437      356556.62    
    800000   800            0.99650701    -0.043927128    16.640624      1.4947459      21.10305       18.13537      -4.4624258      4139.9147      50.453507      47.609597      47.609597     -0.07639107    -0.019776037   -0.035614277    0.021281402   -0.0179768     -0.015049076    7276.045       356526.2     
    804000   804            0.99950024    -0.055855838    16.624516      1.4992357      21.106681      18.123752     -4.4821653      5350.6437      50.463209      47.546764      47.546764     -0.048486136   -0.042935249   -0.076146129   -0.031250545    0.042831343   -0.025681074    7312.2099      356479.33    
    808000   808            1.000069      -0.063213004    16.639152      1.5000889      21.106531      18.139241     -4.4673795      3783.2695      50.472912      47.580564      47.580564     -0.039369693   -0.10028171    -0.049987612    0.014338892   -0.025685344   -0.042885418    7348.0152      356415.11    
    812000   812            0.99771348    -0.039908255    16.638222      1.4965556      21.106833      18.134778     -4.4686104      4260.5761      50.482615      47.577903      47.577903      0.0013749529  -0.073193528   -0.047906191   -0.0042878981   0.028398994    0.0043793351   7383.2209      356322.24    
    816000   816            0.99539363    -0.035808837    16.634882      1.4930759      21.104362      18.127958     -4.4694798      4979.5228      50.492317      47.591732      47.591732     -0.018108289   -0.061739682   -0.027578541   -0.044723688   -0.034140717   -0.0095468209   7418.645       356240.42    
    820000   820            0.9984342     -0.073269684    16.64236       1.4976367      21.106547      18.139996     -4.4641868      3765.8543      50.50202       47.595298      47.595298     -0.12922615    -0.073130107   -0.017452793    0.027596916    0.0044052698  -0.0023474098   7454.1041      356160.73    
    824000   824            1.0007697     -0.074851725    16.633446      1.5011399      21.107194      18.134586     -4.4737483      4340.4972      50.511722      47.570935      47.570935     -0.069208114   -0.11391171    -0.041435349    0.0023096281  -0.0098713175   0.032878951    7489.7869      356092.1     
    828000   828            0.99823427    -0.051652051    16.630967      1.4973368      21.107073      18.128304     -4.4761056      5004.5284      50.521425      47.531005      47.531005     -0.12081486    -0.022311068   -0.01183023    -0.0099485819  -0.010297965    0.013089587    7525.4504      356022.88    
    832000   832            1.0006611     -0.0049690915   16.64205       1.5009771      21.108349      18.143027     -4.4662992      3515.1241      50.531128      47.570714      47.570714     -0.0099783188  -0.082535104    0.077606148   -0.014646415   -0.0066856025   0.028416834    7560.9874      355948.02    
    836000   836            0.99793985    -0.027989519    16.643273      1.4968952      21.110493      18.140168     -4.4672196      3828.2534      50.54083       47.557079      47.557079     -0.03285564    -0.11352539     0.062412472    0.018761392   -0.044359141   -0.015678363    7597.0442      355897.89    
    840000   840            0.99616538    -0.024236823    16.63918       1.4942335      21.10846       18.133413     -4.4692805      4540.5036      50.550533      47.547403      47.547403      0.015583816   -0.046390304   -0.041903981   -0.029130928   -0.015364412    0.020784644    7633.2043      355852.72    
    844000   844            1.0012715     -0.0037007685   16.637406      1.5018927      21.107016      18.139299     -4.4696095      3957.2968      50.560235      47.538702      47.538702     -0.070177079    0.011561429    0.047513345   -0.012698252   -0.042324953   -0.016522168    7668.7182      355777.64    
    848000   848            1.0032761     -0.039433306    16.642207      1.5048994      21.109295      18.147107     -4.4670881      3177.089       50.569938      47.546273      47.546273     -0.014806987   -0.027962234   -0.075530697   -0.029278913   -0.029284186    0.022982545    7704.8812      355732.91    
    852000   852            1.0013231      0.015390222    16.633522      1.5019699      21.105419      18.135492     -4.4718971      4387.1814      50.579641      47.508579      47.508579      0.0087423676   0.027904824    0.0095234738   0.006953821   -0.0055296285   0.0024132083   7740.3127      355654.65    
    856000   856            0.99862985     0.023831571    16.636035      1.4979302      21.110515      18.133965     -4.4744809      4563.58        50.589343      47.502367      47.502367     -0.0085402991   0.064769171    0.015265843    0.024217103    0.020222426    0.0015222372   7776.2801      355601.3     
    860000   860            1.0024505      0.038253423    16.644091      1.5036611      21.112292      18.147752     -4.4682007      3170.5035      50.599046      47.492839      47.492839      0.020797608    0.024950553    0.069012107   -0.0034445696   0.0050609814   0.018237231    7812.4591      355557.73    
    864000   864            1.0015332     -0.016830254    16.6363        1.5022852      21.107127      18.138585     -4.4708265      4129.9542      50.608748      47.490461      47.490461     -0.021330372   -0.0051900365  -0.023970354    0.026702306   -0.026584491   -0.015292664    7848.5289      355509.29    
    868000   868            0.99807859     0.037542033    16.637211      1.4971033      21.111422      18.134314     -4.4742111      4587.6582      50.618451      47.474788      47.474788      0.0098109109   0.064546803    0.038268384    0.014318275    0.0019364895  -0.028672536    7883.8738      355428.28    
    872000   872            1.0021562     -0.022870505    16.631616      1.5032197      21.107388      18.134836     -4.4757722      4554.0925      50.628154      47.480921      47.480921     -0.024470088   -0.020643419   -0.023498008    0.00034246786 -0.038317183    0.044687817    7920.1309      355388.62    
    876000   876            1.0014778     -0.0022204533   16.639129      1.5022021      21.111153      18.141331     -4.4720246      3908.1725      50.637856      47.487421      47.487421     -0.024073466    0.0090851966   0.0083269095   0.045306941   -0.011398783    0.02366205     7956.7465      355365.01    
    880000   880            1.0004802     -0.020714472    16.628551      1.5007056      21.100578      18.129257     -4.4720273      5165.1736      50.647559      47.480604      47.480604      0.040602982   -0.039026014   -0.063720384   -0.027617671   -0.030664435   -0.047000858    7992.7901      355315.85    
    884000   884            0.99586634    -0.054962716    16.636046      1.4937849      21.108859      18.129831     -4.4728133      5126.0768      50.657261      47.479391      47.479391     -0.066635039   -0.056236652   -0.042016457   -0.03806003     0.027975229   -0.013436659    8029.2244      355284.1     
    888000   888            0.99738333    -0.01828363     16.648527      1.4960604      21.107565      18.144587     -4.4590382      3633.3907      50.666964      47.524431      47.524431     -0.021196527   -0.010139712   -0.023514651    0.030865113    0.022569333   -0.011884788    8065.794       355258.26    
    892000   892            0.99440091    -0.015136259    16.643735      1.4915868      21.107895      18.135321     -4.46416        4603.1013      50.676667      47.502623      47.502623     -0.045193876   -0.017291094    0.017076194    0.016705223   -0.009653338    0.029117259    8101.9172      355212.76    
    896000   896            1.0003105     -0.019366378    16.634836      1.5004511      21.106901      18.135287     -4.4720652      4626.4612      50.686369      47.477698      47.477698     -0.046395973   -0.021657846    0.0099546848   0.023016771   -0.0055710399  -0.010337435    8137.9894      355165.11    
[...]
  39768000   39768          0.9985265     -0.14513657     16.652696      1.4977751      21.111547      18.150472     -4.4588503      125166.76      144.97621      28.096144      28.096144     -0.38539956    -0.003225836   -0.046784318    0.023298129   -0.0039377275  -0.028779566    343865.34      2006.0541    
  39772000   39772          0.99684535    -0.16357295     16.649833      1.4952534      21.106667      18.145086     -4.4568343      125728.32      144.98591      28.10599       28.10599      -0.42325602    -0.013295076   -0.05416777    -0.0096229757   0.0061997679  -0.06120893     343899.5       1971.4645    
  39776000   39776          0.99519924    -0.12714297     16.658108      1.4927843      21.112064      18.150892     -4.4539564      125143.07      144.99562      28.11811       28.11811      -0.35798951     0.031402289   -0.054841685    0.0052581918  -0.015509262    0.00018625312  343933.78      1936.8757    
  39780000   39780          1.0019844     -0.1636653      16.644113      1.5029619      21.110317      18.147075     -4.4662039      125543.62      145.00532      28.095207      28.095207     -0.39590756    -0.0057510919  -0.089337237   -0.054126218   -0.026615222   -0.01087227     343967.93      1902.2862    
  39784000   39784          0.99874663    -0.1638056      16.640626      1.4981053      21.107863      18.138732     -4.4672363      126408.65      145.01502      28.07132       28.07132      -0.42974987    -0.035932225   -0.025734688    0.027203604    0.021271842    0.019681205    344002.14      1867.6971    
  39788000   39788          1.0022457     -0.10947122     16.646018      1.5033539      21.108563      18.149372     -4.4625451      125327.83      145.02472      28.094807      28.094807     -0.29978559    -0.048757338    0.020129262    0.02751957     0.029891363   -0.02319241     344036.76      1833.1103    
  39792000   39792          1.0038669     -0.14810427     16.644663      1.5057856      21.109506      18.150449     -4.4648428      125227.28      145.03443      28.088605      28.088605     -0.41479793    -0.0049708655  -0.024544024   -0.0088814487  -0.024458218    0.015567459    344071.07      1798.5219    
  39796000   39796          0.99806877    -0.10755012     16.64837       1.4970885      21.110259      18.145459     -4.4618893      125748.46      145.04413      28.095126      28.095126     -0.38925458     0.042330775    0.024273454   -0.046336784    0.011568422    0.022134436    344105.27      1763.9329    
  39800000   39800          0.99488574    -0.14288033     16.654671      1.4923141      21.107817      18.146985     -4.4531455      125601.49      145.05383      28.109118      28.109118     -0.36504922    -0.028143656   -0.035448111    0.020111474    0.015281899   -0.023988277    344139.58      1729.3446    
  39804000   39804          1.0012301     -0.11025672     16.654405      1.5018305      21.107265      18.156236     -4.4528598      124662.81      145.06353      28.110276      28.110276     -0.33846019    -0.015704539    0.023394565    0.013143861    0.0003011956   0.0011341647   344173.45      1694.7542    
  39808000   39808          0.99912624    -0.098408642    16.644292      1.4986747      21.110882      18.142967     -4.4665898      126032.36      145.07324      28.078079      28.078079     -0.32686298     0.013967718    0.017669334   -0.0020464299   0.031521053   -0.017445485    344207.74      1660.166     
  39812000   39812          0.99897275    -0.12738522     16.644329      1.4984445      21.108739      18.142774     -4.46441        126061.57      145.08294      28.087877      28.087877     -0.35777822    -0.018998486   -0.0053789374  -0.019032194   -0.037722928    0.0041688646   344242.13      1625.5782    
  39816000   39816          1.001867      -0.17151422     16.651102      1.5027859      21.11093       18.153888     -4.4598281      124931.99      145.09264      28.100808      28.100808     -0.43015871    -0.045076956   -0.039306985    0.0037046638   0.0016519666   0.019365106    344276.31      1590.9896    
  39820000   39820          0.99807553    -0.14854349     16.646715      1.4970987      21.104913      18.143814     -4.4581972      125973.93      145.10235      28.095588      28.095588     -0.37938994    -0.040458494   -0.025782024    0.01461554    -0.0040600356   0.0019174366   344310.96      1556.4031    
  39824000   39824          0.99899395    -0.12202566     16.640796      1.4984763      21.10615       18.139272     -4.4653546      126449.13      145.11205      28.077402      28.077402     -0.38319565     0.016563956    0.00055471269 -0.048103875   -0.033567913    0.043254209    344345.41      1521.8158    
  39828000   39828          0.99855921    -0.11878195     16.654008      1.4978242      21.108317      18.151832     -4.4543089      125171.63      145.12175      28.102968      28.102968     -0.32155792    -0.020441492   -0.014346434    0.015117537   -0.009412647    0.0081814762   344379.93      1487.2288    
  39832000   39832          0.9993583     -0.11931674     16.652808      1.4990228      21.10819       18.151831     -4.4553818      125181.28      145.13145      28.092783      28.092783     -0.33493898     0.03141281    -0.054424064   -0.0042697888  -0.015090319   -0.018802703    344414.39      1452.6415    
  39836000   39836          0.99650433    -0.17964215     16.651795      1.4947419      21.107147      18.146537     -4.4553518      125733.61      145.14116      28.104692      28.104692     -0.43126062    -0.076298406   -0.03136743    -0.014149338    0.017880657   -0.023284477    344449.58      1418.0573    
  39840000   39840          1.0005856     -0.13564559     16.646068      1.5008637      21.107869      18.146932     -4.4618015      125702.36      145.15086      28.085294      28.085294     -0.41558667     0.015405116   -0.0067552257  -0.024181932    0.0031693232   0.012766072    344483.29      1383.467     
  39844000   39844          1.0010203     -0.083648732    16.639306      1.5015158      21.102864      18.140822     -4.4635578      126338.41      145.16056      28.074541      28.074541     -0.30412781     0.022391698    0.030789916   -0.018559058   -0.0095029974  -0.0026166562   344517.48      1348.8788    
  39848000   39848          0.99564216    -0.15185646     16.647796      1.4934487      21.105476      18.141245     -4.4576796      126304.98      145.17026      28.095816      28.095816     -0.37579994    -0.021797443   -0.057971995    0.009515463   -0.038656299    0.064682457    344551.51      1314.29      
  39852000   39852          0.99668934    -0.17293155     16.658359      1.4950194      21.108825      18.153379     -4.4504662      125071.11      145.17997      28.098777      28.098777     -0.43676799    -0.012605836   -0.069420829   -0.004413351   -0.0031874991  -0.010866329    344585.39      1279.7008    
  39856000   39856          1.0010388     -0.095785191    16.652518      1.5015436      21.108896      18.154062     -4.4563778      125010.48      145.18967      28.083452      28.083452     -0.30155245    -0.0098790719   0.024075948    0.024545734    0.0034971529   0.021870355    344620.09      1245.1147    
  39860000   39860          0.99584894    -0.17565736     16.644979      1.4937588      21.1065        18.138738     -4.4615211      126590.7       145.19937      28.082319      28.082319     -0.44452682    -0.031894339   -0.050550931   -0.056536466    0.010083137    0.056307956    344654.43      1210.5274    
  39864000   39864          0.9993659     -0.15476905     16.65105       1.4990342      21.107948      18.150085     -4.4568978      125437.18      145.20907      28.093894      28.093894     -0.40276774    -0.059149305   -0.0023901027  -0.044677905    0.028989776   -0.014841272    344688.79      1175.9401    
  39868000   39868          1.0007176     -0.094446783    16.650749      1.5010617      21.102754      18.151811     -4.4520045      125269.73      145.21878      28.091281      28.091281     -0.33898011     0.031549439    0.02409032    -0.0079061138  -0.018006218   -0.0040913069   344723.39      1141.3537    
  39872000   39872          1.0001808     -0.096372944    16.647401      1.5002566      21.108001      18.147658     -4.4605993      125705.32      145.22848      28.073799      28.073799     -0.31975994     0.039076711   -0.0084356053   0.022341863   -0.056464839   -0.021795542    344758.07      1106.7675    
  39876000   39876          1.0000484     -0.12108844     16.637097      1.500058       21.104624      18.137155     -4.4675261      126791.16      145.23818      28.061632      28.061632     -0.38834552     0.010476809    0.014603375   -0.018716558   -0.0058452152   0.01935835     344792.12      1072.1793    
  39880000   39880          1.0016991     -0.16740089     16.645885      1.502534       21.107835      18.148419     -4.4619502      125646.53      145.24788      28.073839      28.073839     -0.38265424     0.020413979   -0.13996241     0.018019467    0.014399349    0.0098496955   344826         1037.5908    
  39884000   39884          0.99759129    -0.16037455     16.648522      1.4963723      21.109314      18.144894     -4.4607928      126017.43      145.25759      28.076876      28.076876     -0.37005975    -0.028233169   -0.08283072    -0.028451076   -0.015593908   -0.050646533    344860.58      1003.0044    
  39888000   39888          0.99505779    -0.1624373      16.645912      1.4925721      21.10782       18.138484     -4.461908       126684.3       145.26729      28.07744       28.07744      -0.35416894    -0.066643455   -0.066499515    0.029170233    0.053495469    0.0049472953   344894.56      968.41633    
  39892000   39892          1.0010445     -0.19681118     16.648592      1.501552       21.105706      18.150144     -4.4571139      125498.72      145.27699      28.086277      28.086277     -0.49916887    -0.056435961   -0.034828717    0.038435802   -0.0046762669  -0.0035178659   344929.41      933.83074    
  39896000   39896          0.99903947    -0.16265467     16.651939      1.4985446      21.110832      18.150484     -4.4588931      125473.79      145.28669      28.080433      28.080433     -0.41548732    -0.034527464   -0.037949221    0.01292555    -0.032174946   -0.039829417    344963.75      899.24377    
  39900000   39900          0.99726603    -0.13891464     16.64249       1.4958844      21.107386      18.138374     -4.4648963      126724.49      145.2964       28.055803      28.055803     -0.39977174    -0.027299408    0.01032724     0.0089760642   0.00424318     0.034775907    344998.38      864.6576     
  39904000   39904          1.0029639     -0.14560917     16.643872      1.5044312      21.110547      18.148303     -4.4666754      125716.62      145.3061       28.06048       28.06048      -0.44330106    -0.010020934    0.016494491   -0.0013681171   0.018385582   -0.058236837    345033.21      830.07187    
  39908000   39908          1.002689      -0.14186622     16.645256      1.5040188      21.106451      18.149275     -4.4611947      125626.98      145.3158       28.066526      28.066526     -0.39923961    -0.034958007    0.0085989648   0.0075968127  -0.030062646    0.018065745    345067.7       795.48533    
  39912000   39912          0.9964324     -0.1058939      16.642177      1.494634       21.106149      18.136811     -4.463972       126914.16      145.32551      28.044868      28.044868     -0.36657585     0.023094541    0.025799602    0.028665344   -0.022617123   -0.015186762    345101.96      760.89828    
  39916000   39916          0.99872438    -0.076498051    16.649417      1.498072       21.111422      18.147489     -4.4620046      125829.47      145.33521      28.052282      28.052282     -0.31769232     0.061969678    0.026228489    0.0040356775   0.011916215   -0.016799362    345136.45      726.3118     
  39920000   39920          1.001733      -0.084243712    16.647578      1.5025848      21.113832      18.150162     -4.4662545      125565.43      145.34491      28.052593      28.052593     -0.34786186     0.030309818    0.064820899   -0.0054186651  -0.055669824    0.025246435    345171.13      691.72572    
  39924000   39924          0.99776011    -0.12316559     16.649305      1.4966256      21.109162      18.145931     -4.4598567      126008.6       145.35461      28.06058       28.06058      -0.35375657     0.0020449323  -0.017785125    0.016978906   -3.6574689e-05  0.016890992    345205.74      657.13948    
  39928000   39928          0.99764419    -0.13604024     16.645372      1.4964517      21.107409      18.141824     -4.4620364      126438.97      145.36432      28.055147      28.055147     -0.35060213    -0.039072388   -0.018446194   -0.006595916    0.028399172   -0.042530049    345240.46      622.55343    
  39932000   39932          0.99835369    -0.11968014     16.651436      1.4975159      21.107312      18.148952     -4.4558755      125718.16      145.37402      28.064394      28.064394     -0.33694402     0.0028884738  -0.024984881    0.0023858762   0.0034218645  -0.0092469033   345274.72      587.96657    
  39936000   39936          1.0030315     -0.14514599     16.652085      1.5045325      21.110091      18.156618     -4.4580059      124942.26      145.38372      28.077495      28.077495     -0.40830939     0.012848591   -0.03997716     0.014498635   -0.02253815     0.0068606204   345308.93      553.3797     
  39940000   39940          0.99625406    -0.1260663      16.647103      1.4943665      21.110291      18.14147      -4.4631881      126504.6       145.39342      28.043171      28.043171     -0.42883461     0.04082634     0.0098093573  -0.047500768   -0.029694373    0.0216229      345344.1       518.79434    
  39944000   39944          1.0007137     -0.15974697     16.642249      1.5010559      21.110624      18.143305     -4.4683748      126326.08      145.40313      28.044844      28.044844     -0.40034603    -0.026142889   -0.052751981   -0.037705188   -0.0075487163  -0.0038066071   345378.98      484.20846    
  39948000   39948          0.99784059    -0.15506242     16.656478      1.4967463      21.112929      18.153224     -4.4564512      125319.31      145.41283      28.070452      28.070452     -0.43741276    -0.021640985   -0.0061335018   0.020986387   -0.028051197    0.02122835     345414.12      449.62287    
  39952000   39952          1.0024592     -0.11324465     16.653953      1.5036741      21.110067      18.157627     -4.4561137      124877.65      145.42253      28.060184      28.060184     -0.36460522     0.019575641    0.0052956271  -0.0015897311  -0.016588466    0.0099898392   345448.36      415.03607    
  39956000   39956          0.99875486    -0.16434385     16.644295      1.4981177      21.107999      18.142413     -4.4637042      126446.41      145.43223      28.058902      28.058902     -0.41248016    -0.027256138   -0.053295257   -0.0017051106  -0.0064482843   0.035271471    345482.58      380.44934    
  39960000   39960          0.99967011    -0.10015191     16.646736      1.4994905      21.108391      18.146227     -4.4616549      126065.3       145.44194      28.058167      28.058167     -0.33754271    -0.025959584    0.063046578   -0.030792324    0.045886078    0.0040435729   345517.17      345.86303    
  39964000   39964          1.0013804     -0.14522097     16.651545      1.502056       21.110079      18.153601     -4.458534       125318.97      145.45164      28.0635        28.0635       -0.42511769     0.015133477   -0.025678712   -0.0027788745   0.034376829    0.0076701463   345551.9       311.27686    
  39968000   39968          0.99919277    -0.074858463    16.649479      1.4987745      21.110568      18.148254     -4.4610891      125876.76      145.46134      28.048023      28.048023     -0.32722871    -0.015110671    0.11776399    -0.035996524    0.0060081693   0.010532283    345587.03      276.69098    
  39972000   39972          1.0024492     -0.1770379      16.640635      1.5036592      21.108903      18.144294     -4.4682676      126292.35      145.47104      28.032034      28.032034     -0.44816028    -0.045509804   -0.037443618   -0.035805382   -0.0033077987   0.022604266    345621.37      242.10443    
  39976000   39976          0.99730961    -0.12931368     16.635438      1.4959498      21.106642      18.131388     -4.4712037      127624.52      145.48075      28.030795      28.030795     -0.34674264    -0.030182113   -0.011016298   -0.029762492    0.0024566836  -0.0054895009   345656.26      207.51827    
  39980000   39980          0.99964802    -0.11953757     16.641749      1.4994574      21.109848      18.141206     -4.4680998      126627.94      145.49045      28.040982      28.040982     -0.34101716     0.020980029   -0.038575592    0.0078881471  -0.00067971689  0.018676843    345691.11      172.93202    
  39984000   39984          0.99719446    -0.074063097    16.653864      1.4957771      21.11257       18.149641     -4.4587062      125773.29      145.50015      28.053273      28.053273     -0.31462372     0.0054901889   0.086944242   -0.046944721   -0.020466221    0.0045871893   345725.98      138.34573    
  39988000   39988          0.99923432    -0.14939754     16.642988      1.4988369      21.105657      18.141825     -4.462669       126583.95      145.50985      28.044966      28.044966     -0.37490709    -0.07639157     0.0031060452  -0.065954033    0.063196821   -0.016598204    345760.81      103.75937    
  39992000   39992          0.9995911     -0.10020871     16.638745      1.499372       21.104527      18.138117     -4.4657819      126973.61      145.51956      28.034644      28.034644     -0.26731049    -0.071859143    0.03854349     0.040359445   -0.0010954568   0.027837238    345795.39      69.172912    
  39996000   39996          1.001404      -0.1180911      16.651524      1.5020914      21.108194      18.153616     -4.4566697      125395.07      145.52926      28.049843      28.049843     -0.35747888    -0.028114777    0.03132034    -0.041949062    0.0093111025   0.014705566    345830.22      34.586481    
  40000000   40000          0.99591795    -0.10878083     16.648449      1.4938623      21.10807       18.142311     -4.4596213      126563.4       145.53896      28.042081      28.042081     -0.37162991     0.03989066     0.0053967518  -0.0034831764  -0.070055974    0.0034756207   345864.36      0            
Loop time of 345864 on 18 procs for 40000000 steps with 102500 atoms

Performance: 9992.357 tau/day, 115.652 timesteps/s
98.1% CPU use with 18 MPI tasks x 1 OpenMP threads

MPI task timing breakdown:
Section |  min time  |  avg time  |  max time  |%varavg| %total
---------------------------------------------------------------
Pair    | 2.1328e+05 | 2.2724e+05 | 2.3674e+05 | 997.0 | 65.70
Bond    | 10620      | 12502      | 13640      | 502.6 |  3.61
Neigh   | 12743      | 12763      | 12792      |  12.1 |  3.69
Comm    | 33206      | 40233      | 52190      |1936.2 | 11.63
Output  | 981.93     | 981.96     | 982.13     |   0.1 |  0.28
Modify  | 46127      | 49800      | 53958      |1416.9 | 14.40
Other   |            | 2343       |            |       |  0.68

Nlocal:        5694.44 ave        5740 max        5650 min
Histogram: 3 0 1 2 4 2 1 3 0 2
Nghost:        9986.67 ave       10029 max        9934 min
Histogram: 1 1 1 1 2 3 2 6 0 1
Neighs:         224680 ave      229563 max      220287 min
Histogram: 1 3 0 3 2 4 2 1 1 1

Total # of neighbors = 4044244
Ave neighs/atom = 39.456039
Ave special neighs/atom = 6.627161
Neighbor list builds = 1331746
Dangerous builds = 0

# GENERATION RESTART
write_restart ./out.deform.restart
System init for write_restart ...
Generated 0 of 36 mixed pair_coeff terms from geometric mixing rule
write_data    ./out.deform.data pair ij
System init for write_data ...
Generated 0 of 36 mixed pair_coeff terms from geometric mixing rule
Total wall time: 96:04:25
