LAMMPS (15 Sep 2022)
OMP_NUM_THREADS environment is not set. Defaulting to 1 thread. (src/comm.cpp:98)
  using 1 OpenMP thread(s) per MPI task
package gpu 0 binsize 12.0
# LAMMPS Script for deform
# Generated 12/17/2022

# INIT PARAMS & READ CONF
include   "/work_bgfs/h/harshad/simulation_9/neat_polymer/config_2/system.init"
# UNITS
units		lj
dimension	3
atom_style	bond

# INPUT FILE
pair_style	lj/cut 2.5
bond_style	fene
read_data /work_bgfs/h/harshad/simulation_9/neat_polymer/config_2/quiescent/thermal_replicates/3.npt.data
Reading data file ...
  orthogonal box = (-24.257186 -24.257186 -24.257186) to (24.257186 24.257186 24.257186)
  2 by 3 by 3 MPI processor grid
  reading atoms ...
  102500 atoms
  reading velocities ...
  102500 velocities
  scanning bonds ...
  2 = max bonds/atom
  reading bonds ...
  104500 bonds
Finding 1-2 1-3 1-4 neighbors ...
  special bond factors lj:    0        0        0       
  special bond factors coul:  0        0        0       
     4 = max # of 1-2 neighbors
     4 = max # of 1-3 neighbors
     8 = max # of 1-4 neighbors
    12 = max # of special neighbors
  special bonds CPU = 0.004 seconds
  read_data CPU = 1.378 seconds
include   "/work_bgfs/h/harshad/simulation_9/neat_polymer/config_2/system.settings"
# ATOM TYPE
mass  1  1.0 #backbone
mass  2  1.0 #endmer
mass  3  1.0 #crosslinker
mass  4  1.0 #outer shell
mass  5  1.0 #inner shell 2
mass  6  1.0 #inner-most shell
mass  7  1.0 #center bead
mass  8  1.0 #endmer post crosslinking
mass  9  1.0 #crosslinker post crosslinking

# BOND
bond_coeff * 30.0 1.50 1.0 1.0
special_bonds lj 0.0 1.0 1.0
Finding 1-2 1-3 1-4 neighbors ...
  special bond factors lj:    0        1        1       
  special bond factors coul:  0        0        0       
     4 = max # of 1-2 neighbors
     4 = max # of 1-3 neighbors
     8 = max # of 1-4 neighbors
    12 = max # of special neighbors
  special bonds CPU = 0.003 seconds

# PAIR
pair_coeff  1*9 1*9 1.0 1.0 2.5

pair_modify  shift yes
neigh_modify delay 1 check yes

# MAKE GROUPS
group polymer type 1 2 3 8 9
102500 atoms in group polymer
#group ins     type 1
#group strand  type 1 2 8
#group ends    type 2 8
#group xlinks  type 3 9
#group filler  type 4 5 6 7

# INPUTS FROM SBATCH
variable Temp          equal 1.0
variable gamma_total   equal 2.0
variable gamma_rate    equal 0.00005
variable dt            equal 0.001
variable Nfreq         equal 4000
variable Nrepeat_2     equal 100
variable Nevery_1      equal 1
variable Nrepeat_1     equal 1

variable Run           equal ${gamma_total}/${gamma_rate}/${dt}
variable Run           equal 2/${gamma_rate}/${dt}
variable Run           equal 2/5e-05/${dt}
variable Run           equal 2/5e-05/0.001

# RUN OPTIONS
run_style verlet
timestep  ${dt}
timestep  0.001

# RESTART
restart  ${Nfreq} cycle.1.restart cycle.2.restart
restart  4000 cycle.1.restart cycle.2.restart

## SAVE RESTARTS EVERY 10% EXTENSION
#variable RestFreq      equal 0.1/${gamma_rate}/${dt}
#restart  ${RestFreq} deform.*.restart
#
# COMPUTE ke/atom, pe/atom, pxx/atom, position and time-avg
compute     ke_atm          all     ke/atom
compute     p_atm           all     stress/atom NULL
compute     pe_atm          all     pe/atom
compute     ebond_atm       all     pe/atom bond
compute     posit_atm       all     property/atom x y z
fix         avg_ke_atm_1    all     ave/atom ${Nevery_1} ${Nrepeat_1} ${Nfreq} c_ke_atm
fix         avg_ke_atm_1    all     ave/atom 1 ${Nrepeat_1} ${Nfreq} c_ke_atm
fix         avg_ke_atm_1    all     ave/atom 1 1 ${Nfreq} c_ke_atm
fix         avg_ke_atm_1    all     ave/atom 1 1 4000 c_ke_atm
fix         avg_pxx_atm_1   all     ave/atom ${Nevery_1} ${Nrepeat_1} ${Nfreq} c_p_atm[*]
fix         avg_pxx_atm_1   all     ave/atom 1 ${Nrepeat_1} ${Nfreq} c_p_atm[*]
fix         avg_pxx_atm_1   all     ave/atom 1 1 ${Nfreq} c_p_atm[*]
fix         avg_pxx_atm_1   all     ave/atom 1 1 4000 c_p_atm[*]
fix         avg_pe_atm_1    all     ave/atom ${Nevery_1} ${Nrepeat_1} ${Nfreq} c_pe_atm
fix         avg_pe_atm_1    all     ave/atom 1 ${Nrepeat_1} ${Nfreq} c_pe_atm
fix         avg_pe_atm_1    all     ave/atom 1 1 ${Nfreq} c_pe_atm
fix         avg_pe_atm_1    all     ave/atom 1 1 4000 c_pe_atm
#fix         avg_posit_atm_1 all     ave/atom ${Nevery_1} ${Nrepeat_1} ${Nfreq} c_posit_atm[1] c_posit_atm[2] c_posit_atm[3]
dump        dump_1 all custom ${Nfreq} ${out_dir}traj.${Nevery_1}_${Nrepeat_1}_${Nfreq}.xyz mol type x y z f_avg_ke_atm_1 f_avg_pe_atm_1 f_avg_pxx_atm_1[*]
dump        dump_1 all custom 4000 ${out_dir}traj.${Nevery_1}_${Nrepeat_1}_${Nfreq}.xyz mol type x y z f_avg_ke_atm_1 f_avg_pe_atm_1 f_avg_pxx_atm_1[*]
dump        dump_1 all custom 4000 /shares_bgfs/dssimmons_data/harshad/deform/neat_polymer/config_2/3_deform/work_bgfs--h--harshad--simulation_9--neat_polymer--config_2--3_deform--traj.${Nevery_1}_${Nrepeat_1}_${Nfreq}.xyz mol type x y z f_avg_ke_atm_1 f_avg_pe_atm_1 f_avg_pxx_atm_1[*]
dump        dump_1 all custom 4000 /shares_bgfs/dssimmons_data/harshad/deform/neat_polymer/config_2/3_deform/work_bgfs--h--harshad--simulation_9--neat_polymer--config_2--3_deform--traj.1_${Nrepeat_1}_${Nfreq}.xyz mol type x y z f_avg_ke_atm_1 f_avg_pe_atm_1 f_avg_pxx_atm_1[*]
dump        dump_1 all custom 4000 /shares_bgfs/dssimmons_data/harshad/deform/neat_polymer/config_2/3_deform/work_bgfs--h--harshad--simulation_9--neat_polymer--config_2--3_deform--traj.1_1_${Nfreq}.xyz mol type x y z f_avg_ke_atm_1 f_avg_pe_atm_1 f_avg_pxx_atm_1[*]
dump        dump_1 all custom 4000 /shares_bgfs/dssimmons_data/harshad/deform/neat_polymer/config_2/3_deform/work_bgfs--h--harshad--simulation_9--neat_polymer--config_2--3_deform--traj.1_1_4000.xyz mol type x y z f_avg_ke_atm_1 f_avg_pe_atm_1 f_avg_pxx_atm_1[*]
dump_modify dump_1 append yes sort id

# COMPUTE a separate pe and ke for each group, AVG & SAVE
compute   pe_polymer    all reduce  sum c_pe_atm
compute   ke_polymer    all reduce  sum c_ke_atm
compute   ebond_polymer all reduce  sum c_ebond_atm
compute   pxx_polymer   all reduce  sum c_p_atm[1] c_p_atm[2] c_p_atm[3]
compute   pxy_polymer   all reduce  sum c_p_atm[4] c_p_atm[5] c_p_atm[6]
fix 		  avgEnergy     all     ave/time ${Nevery_1} ${Nrepeat_2} ${Nfreq} c_pe_polymer c_ke_polymer c_ebond_polymer c_pxy_polymer[1] c_pxy_polymer[2] c_pxy_polymer[3] file energy.avg.csv
fix 		  avgEnergy     all     ave/time 1 ${Nrepeat_2} ${Nfreq} c_pe_polymer c_ke_polymer c_ebond_polymer c_pxy_polymer[1] c_pxy_polymer[2] c_pxy_polymer[3] file energy.avg.csv
fix 		  avgEnergy     all     ave/time 1 100 ${Nfreq} c_pe_polymer c_ke_polymer c_ebond_polymer c_pxy_polymer[1] c_pxy_polymer[2] c_pxy_polymer[3] file energy.avg.csv
fix 		  avgEnergy     all     ave/time 1 100 4000 c_pe_polymer c_ke_polymer c_ebond_polymer c_pxy_polymer[1] c_pxy_polymer[2] c_pxy_polymer[3] file energy.avg.csv
fix       avgPxx_all    all     ave/time ${Nevery_1} ${Nfreq} ${Nfreq}     c_pxx_polymer[1] c_pxx_polymer[2] c_pxx_polymer[3]                                           file pxx.all.avg.csv
fix       avgPxx_all    all     ave/time 1 ${Nfreq} ${Nfreq}     c_pxx_polymer[1] c_pxx_polymer[2] c_pxx_polymer[3]                                           file pxx.all.avg.csv
fix       avgPxx_all    all     ave/time 1 4000 ${Nfreq}     c_pxx_polymer[1] c_pxx_polymer[2] c_pxx_polymer[3]                                           file pxx.all.avg.csv
fix       avgPxx_all    all     ave/time 1 4000 4000     c_pxx_polymer[1] c_pxx_polymer[2] c_pxx_polymer[3]                                           file pxx.all.avg.csv

# TIME-AVG Ly
variable Ly equal ly
fix       avgLy         all     ave/time ${Nevery_1} ${Nfreq} ${Nfreq}     v_Ly  file Ly.avg.csv
fix       avgLy         all     ave/time 1 ${Nfreq} ${Nfreq}     v_Ly  file Ly.avg.csv
fix       avgLy         all     ave/time 1 4000 ${Nfreq}     v_Ly  file Ly.avg.csv
fix       avgLy         all     ave/time 1 4000 4000     v_Ly  file Ly.avg.csv

# SIMULATION FIXES
fix  npt        all npt temp ${Temp} ${Temp} 2.0 y 0 0 5 z 0 0 5 couple yz
fix  npt        all npt temp 1 ${Temp} 2.0 y 0 0 5 z 0 0 5 couple yz
fix  npt        all npt temp 1 1 2.0 y 0 0 5 z 0 0 5 couple yz
fix  mom        all momentum 10000 linear 1 1 1
fix  deform     all deform 1 x erate ${gamma_rate} remap x units box
fix  deform     all deform 1 x erate 5e-05 remap x units box

# THERMO
variable  thermo_frq equal ${Nfreq}
variable  thermo_frq equal 4000
thermo    ${thermo_frq}
thermo    4000
thermo_style  custom step time temp press pe ke ebond etotal epair ecouple lx ly lz pxx pyy pzz pxy pxz pyz cpu cpuremain

# deform
run ${Run}
run 40000000

CITE-CITE-CITE-CITE-CITE-CITE-CITE-CITE-CITE-CITE-CITE-CITE-CITE

Your simulation uses code contributions which should be cited:

- GPU package (short-range, long-range and three-body potentials): doi:10.1016/j.cpc.2010.12.021, doi:10.1016/j.cpc.2011.10.012, doi:10.1016/j.cpc.2013.08.002, doi:10.1016/j.commatsci.2014.10.068, doi:10.1016/j.cpc.2016.10.020, doi:10.3233/APC200086

@Article{Brown11,
 author = {W. M. Brown and P. Wang and S. J. Plimpton and A. N. Tharrington},
 title = {Implementing Molecular Dynamics on Hybrid High Performance Computers---Short Range Forces},
 journal = {Comput.\ Phys.\ Commun.},
 year =    2011,
 volume =  182,
 pages =   {898--911},
 doi =     {10.1016/j.cpc.2010.12.021}
}

@Article{Brown12,
 author = {W. M. Brown and A. Kohlmeyer and S. J. Plimpton and A. N. Tharrington},
 title = {Implementing Molecular Dynamics on Hybrid High Performance Computers - Particle-Particle Particle-Mesh},
 journal = {Comput.\ Phys.\ Commun.},
 year =    2012,
 volume =  183,
 doi =     {10.1016/j.cpc.2011.10.012},
 pages =   {449--459}
}

@Article{Brown13,
 author = {W. M. Brown and Y. Masako},
 title = {Implementing Molecular Dynamics on Hybrid High Performance Computers---Three-Body Potentials},
 journal = {Comput.\ Phys.\ Commun.},
 year =    2013,
 volume =  184,
 pages =   {2785--2793},
 doi =     {10.1016/j.cpc.2013.08.002},
}

@Article{Trung15,
 author = {T. D. Nguyen and S. J. Plimpton},
 title = {Accelerating Dissipative Particle Dynamics Simulations for Soft Matter Systems},
 journal = {Comput.\ Mater.\ Sci.},
 year =    2015,
 doi =     {10.1016/j.commatsci.2014.10.068},
 volume =  100,
 pages =   {173--180}
}

@Article{Trung17,
 author = {T. D. Nguyen},
 title = {{GPU}-Accelerated {T}ersoff Potentials for Massively Parallel
    Molecular Dynamics Simulations},
 journal = {Comput.\ Phys.\ Commun.},
 year =    2017,
 doi =     {10.1016/j.cpc.2016.10.020},
 volume =  212,
 pages =   {113--122}
}

@inproceedings{Nikolskiy19,
 author = {V. Nikolskiy and V. Stegailov},
 title = {{GPU} Acceleration of Four-Site Water Models in {LAMMPS}},
 booktitle = {Proceedings of the International Conference on Parallel
    Computing (ParCo 2019), Prague, Czech Republic},
 doi =     {10.3233/APC200086},
 year =    2019
}

CITE-CITE-CITE-CITE-CITE-CITE-CITE-CITE-CITE-CITE-CITE-CITE-CITE

Generated 0 of 36 mixed pair_coeff terms from geometric mixing rule
WARNING: Inconsistent image flags (src/domain.cpp:819)
Per MPI rank memory allocation (min/avg/max) = 11.63 | 11.63 | 11.64 Mbytes
   Step          Time           Temp          Press          PotEng         KinEng         E_bond         TotEng         E_pair        Ecouple           Lx             Ly             Lz            Pxx            Pyy            Pzz            Pxy            Pxz            Pyz            CPU          CPULeft    
         0   0              0.99609838    -0.023454275    16.632531      1.494133       21.10805       18.126664     -4.4755191      0              48.514372      48.514372      48.514372     -0.033107027   -0.018755628   -0.018500169    0.015965476   -0.011052109   -0.01494201     0              0            
      4000   4              0.99730324     0.0078939236   16.641625      1.4959403      21.111874      18.137565     -4.4702489     -1096.8347      48.524075      48.518972      48.518972     -0.032738507    0.032705828    0.02371445     0.030360738   -0.044205407    0.0010597146   7.3094813      73087.514    
      8000   8              0.99684894    -0.024200657    16.640845      1.4952588      21.105344      18.136104     -4.4644991     -926.73896      48.533778      48.531473      48.531473      0.025867461   -0.12354704     0.025077606    0.011661881   -0.0056836089  -0.044515228    14.848177      74226.042    
     12000   12             0.99985862     0.0042911433   16.630931      1.4997733      21.106082      18.130705     -4.475151      -352.84513      48.543481      48.496613      48.496613      0.042438497   -0.032430767    0.0028657     -0.027364268   -0.0071006599   0.03072658     22.410765      74680.143    
     16000   16             0.99383758    -0.054598764    16.626947      1.4907418      21.108081      18.117689     -4.4811335      1001.8193      48.553184      48.457885      48.457885     -0.082040234   -0.048943532   -0.032812526    0.0026098534  -0.027172606   -0.011013376    30.012368      75000.912    
     20000   20             1.0007756      0.024014616    16.628127      1.5011487      21.108257      18.129276     -4.4801301     -165.09005      48.562887      48.448683      48.448683     -0.01772393     0.095699139   -0.0059313601  -0.015525137    0.019483822   -0.0039540321   37.594267      75150.942    
     24000   24             1.0024909     -0.088388799    16.63652       1.5037216      21.107807      18.140242     -4.471287      -1268.0244      48.57259       48.49905       48.49905      -0.1357855     -0.05158973    -0.077791167   -0.030380631    0.035370365   -0.021917141    45.047175      75033.581    
     28000   28             1.0016614     -0.011527056    16.636845      1.5024775      21.109019      18.139323     -4.4721741     -1153.1638      48.582293      48.473729      48.473729     -0.0098626823   0.021025669   -0.045744154    0.018753851   -0.034438037   -0.037005447    52.583052      75066.065    
     32000   32             1.0000067      0.0067841474   16.632927      1.4999954      21.107245      18.132922     -4.4743186     -476.44632      48.591995      48.468933      48.468933      0.0030081936   0.0050009562   0.012343292    0.030355986    0.023146899   -0.0075974481   59.99977       74939.714    
     36000   36             0.99932087    -0.020497383    16.633367      1.4989667      21.105605      18.132334     -4.4722375     -395.02912      48.601698      48.462809      48.462809     -0.01387798    -0.0474047     -0.00020946807 -0.0044707851  -0.0093546662  -0.0023691584   67.672873      75124.41     
     40000   40             1.0018444      0.082165801    16.638142      1.502752       21.108278      18.140894     -4.470135      -1251.9468      48.611401      48.457662      48.457662      0.041708925    0.1059288      0.098859681    0.050442316   -0.034343583   -0.015184085    75.322179      75246.858    
     44000   44             1.0027904      0.027027577    16.64011       1.5041709      21.10841       18.144281     -4.4683001     -1578.4491      48.621104      48.45953       48.45953       0.031185171    0.0069881728   0.042909388   -0.0031320299   0.024444546   -0.00027981621  82.819764      75207.876    
     48000   48             1.0028573      0.035491462    16.624842      1.5042713      21.108458      18.129113     -4.4836165     -3.8370585      48.630807      48.406339      48.406339      0.011521751   -0.0005318241   0.09548446     0.011057201   -0.027646772    0.00015709702  90.321819      75177.862    
     52000   52             0.99986396     0.0055238907   16.633681      1.4997813      21.103117      18.133462     -4.4694367     -429.05681      48.64051       48.459168      48.459168      0.032049927    0.0060106683  -0.021488923    0.00077121918 -0.027053796   -0.041628135    97.87391       75189.75     
     56000   56             1.0024323      0.0065908179   16.636029      1.5036338      21.107197      18.139663     -4.4711679     -1044.0846      48.650213      48.435724      48.435724     -0.039131813    0.042149704    0.016754563    0.0016170549   0.042683479   -0.004049427    105.49061      75244.947    
     60000   60             0.99853603     0.0011038875   16.634064      1.4977894      21.108498      18.131853     -4.4744342     -223.50148      48.659916      48.431312      48.431312     -0.0094278981   0.012278157    0.00046140344  0.0074703811   0.023398833    0.035022637    113.09967      75286.68     
     64000   64             1.0020853     -0.019918239    16.638378      1.5031132      21.109064      18.141492     -4.4706856     -1190.7988      48.669618      48.431944      48.431944     -0.0053292674   0.0044102029  -0.058835653    0.015870524    0.03833837     0.02282292     120.82977      75397.774    
     68000   68             1.0012681      0.018745544    16.640468      1.5018874      21.108744      18.142355     -4.468276      -1258.4379      48.679321      48.430708      48.430708      0.021141962    0.024990953    0.010103716    0.052672807    0.043083263    0.0027738977   128.43228      75419.97     
     72000   72             0.99741348     0.015345982    16.634305      1.4961056      21.10485       18.130411     -4.4705451     -14.030345      48.689024      48.403495      48.403495     -0.0021688755   0.01757512     0.0306317     -0.013346895    0.030152092    0.012697749    135.901        75364.656    
     76000   76             1.0007368      0.01529918     16.630679      1.5010906      21.108219      18.13177      -4.4775393     -133.03452      48.698727      48.398766      48.398766     -0.019717856    0.029090765    0.036524629   -0.050944985   -0.0039850517   0.028873147    143.45836      75360.942    
     80000   80             1.002672      -0.0039204312   16.639754      1.5039933      21.105533      18.143747     -4.465779      -1340.1148      48.70843       48.437143      48.437143     -0.061930885    0.0092867651   0.040882826    0.015689555   -0.013934267   -0.038322267    151.07138      75384.617    
     84000   84             0.99943803    -0.0054224678   16.63367       1.4991424      21.105238      18.132813     -4.4715678     -198.41657      48.718133      48.435455      48.435455     -0.048933636    0.014421202    0.018245031    0.00098088444  0.012912946    0.0149345      158.49828      75316.874    
     88000   88             0.9967187     -0.02169295     16.640194      1.4950635      21.113275      18.135257     -4.4730811     -427.68421      48.727836      48.416033      48.416033     -0.022352488   -0.016882091   -0.025844272   -0.048081642   -0.045850873   -0.0071048359   165.98112      75279.983    
     92000   92             0.99729392    -0.014283631    16.645074      1.4959263      21.106603      18.141001     -4.4615284     -995.74305      48.737539      48.441392      48.441392     -0.019935571   -0.052960783    0.030045461   -0.039995385    0.0036663132  -0.025424481    173.5245       75271.913    
     96000   96             1.000794       0.0047741012   16.643048      1.5011764      21.105461      18.144224     -4.4624136     -1305.8946      48.747241      48.435051      48.435051      0.016542846    0.01792481    -0.020145352   -0.025621928   -0.051042259   -0.051999559    181.02939      75247.885    
    100000   100            0.99539766    -0.0020067872   16.638753      1.4930819      21.108242      18.131835     -4.4694886     -15.881579      48.756944      48.410838      48.410838      0.03447212     0.0078408408  -0.048333323   -0.0044586571   0.0093512804   0.04205567     188.58243      75244.389    
    104000   104            0.9992049     -0.062839       16.635799      1.4987927      21.106059      18.134592     -4.4702601     -277.63225      48.766647      48.410897      48.410897     -0.10198068     0.010496899   -0.097033221   -0.016255334   -0.020992589    0.030219649    196.1278       75237.643    
    108000   108            1.0008113     -0.045249225    16.64501       1.5012023      21.10944       18.146212     -4.4644296     -1448.2416      48.77635       48.400812      48.400812     -0.00083028199 -0.081821627   -0.053095767    0.028348608   -0.007276793    0.0093354456   203.55295      75186.43     
    112000   112            0.99969118     0.050361486    16.636296      1.4995221      21.104004      18.135818     -4.4677084     -362.50858      48.786053      48.367153      48.367153      0.042899657    0.075034713    0.033150087   -0.027694712   -0.011223663   -0.012858568    211.17092      75207.017    
    116000   116            1.0011969      0.010774455    16.627582      1.5017807      21.105458      18.129362     -4.477876       319.32761      48.795756      48.357262      48.357262      0.041854368   -0.028979801    0.019448798    0.015561515    0.021171183   -0.063088814    218.80667      75231.769    
    120000   120            1.0048044      0.01230955     16.630738      1.5071919      21.106491      18.13793      -4.4757529     -538.3377       48.805459      48.356845      48.356845      0.00056986236  0.019378408    0.016980379    0.0063426126  -0.012860621   -0.003747919    226.44087      75253.851    
    124000   124            0.99664081     0.020386016    16.639837      1.4949466      21.105896      18.134784     -4.4660593     -195.22475      48.815162      48.384754      48.384754      0.015344172    0.038531316    0.0072825611  -0.014921841    0.0047557349  -0.037956623    233.98429      75244.819    
    128000   128            0.99795969     0.01151146     16.627596      1.4969249      21.106376      18.124521     -4.4787795      877.05822      48.824864      48.340215      48.340215     -0.034333317    0.020770277    0.048097419   -0.0068233445   0.0054460311   0.01230043     241.59834      75257.882    
    132000   132            0.9963926     -0.0079331514   16.638841      1.4945743      21.108794      18.133415     -4.4699526     -13.36845       48.834567      48.351208      48.351208     -0.028193343    0.0061597238  -0.0017658346  -0.0017299144  -0.0061775437   0.0066247985   249.22079      75272.23     
    136000   136            1.0034606     -0.018195564    16.632417      1.5051763      21.103541      18.137594     -4.4711239     -421.26691      48.84427       48.35079       48.35079      -0.030429154   -0.089741571    0.065584034    0.019673051    0.031966808    0.038939342    256.83763      75283.641    
    140000   140            1.0022114     -0.009626881    16.624667      1.5033024      21.102928      18.127969     -4.478261       585.84824      48.853973      48.326874      48.326874     -0.032121107   -0.01326696     0.016507423   -0.022236753    0.034835567    0.01025903     264.43866      75289.466    
    144000   144            1.0023914     -0.021408883    16.637851      1.5035725      21.107546      18.141423     -4.4696955     -772.43257      48.863676      48.360591      48.360591     -0.027246873   -0.055404       0.018424223    0.039346092    0.016327905    0.030723398    271.94205      75267.517    
    148000   148            0.99945151    -0.033016775    16.634947      1.4991626      21.107443      18.13411      -4.4724958     -2.3539651      48.873379      48.345638      48.345638     -0.060352851   -0.050750649    0.012053174   -0.0062041248   0.013999635    0.0057233814   279.61067      75290.841    
    152000   152            0.99553392    -0.0011625457   16.636353      1.4932863      21.108115      18.12964      -4.4717621      476.26957      48.883082      48.320155      48.320155     -0.020804937    0.061365432   -0.044048132   -0.026587034    0.011993439   -0.013926599    287.08902      75262.653    
    156000   156            0.99674886    -0.0093324026   16.642965      1.4951087      21.110239      18.138074     -4.4672739     -367.71193      48.892785      48.344361      48.344361      0.00074670161 -0.00011263213 -0.028631277    0.019638426   -0.040177498   -0.015505208    294.70247      75270.033    
    160000   160            1.0028877      0.0078138719   16.640271      1.5043169      21.106551      18.144588     -4.4662794     -1014.7181      48.902487      48.347318      48.347318      0.020099325    0.0050410004  -0.0016987098  -0.026730519   -0.041850504   -0.0057603364   302.24502      75259.01     
    164000   164            1.0024811      0.016689108    16.634007      1.503707       21.106459      18.137714     -4.4724517     -289.6792       48.91219       48.304452      48.304452      0.04794464    -0.017369124    0.019491809   -0.047513519    0.062972892   -0.0094651822   309.66806      75219.128    
    168000   168            0.99841821     0.0085864121   16.633043      1.4976127      21.104635      18.130655     -4.4715925      454.09815      48.921893      48.327247      48.327247     -0.0083330783  -0.032446889    0.066539204    0.00018020323  0.081373952    0.000749023    317.12497      75188.821    
    172000   172            0.9979916      0.0051341616   16.644135      1.4969728      21.108777      18.141107     -4.4646422     -596.75141      48.931596      48.333913      48.333913      0.00042622474 -0.017252912    0.032229172   -0.032040459   -0.015628351   -0.022488267    324.62326      75169.158    
    176000   176            1.001726      -0.04004423     16.649524      1.5025743      21.10921       18.152098     -4.4596864     -1702.3845      48.941299      48.343543      48.343543     -0.040661578   -0.029839475   -0.049631637   -0.027211461    0.032745982    0.04061702     332.87788      75321.185    
    180000   180            1.0045958      0.032729203    16.634191      1.506879       21.105395      18.14107      -4.4712037     -551.94379      48.951002      48.287612      48.287612      0.05455736     0.02819741     0.015432839    0.026914467   -0.0048554618   0.037872584    340.37058      75297.537    
    184000   184            0.9999746      0.022368042    16.633627      1.4999473      21.107732      18.133575     -4.4741047      236.78478      48.960705      48.275869      48.275869      0.055029173   -0.0034501336   0.015525087   -0.0097525712   0.0049920116  -0.020110255    347.97631      75299.048    
    188000   188            0.99856626     0.076087653    16.627215      1.4978348      21.107984      18.12505      -4.4807686      1130.8195      48.970408      48.233903      48.233903      0.095499468    0.078169741    0.054593749    0.0016780736   0.021359478   -0.019060466    355.67706      75320.294    
    192000   192            1.0020341      0.016686827    16.623552      1.5030365      21.103905      18.126588     -4.4803527      992.97389      48.98011       48.228438      48.228438     -0.036464695    0.043414794    0.043110381    0.029128948   -0.041422448    0.032125757    363.12667      75288.264    
    196000   196            1.0004562      0.055013246    16.63607       1.5006697      21.107325      18.13674      -4.4712541     -26.716479      48.989813      48.267538      48.267538      0.038265406    0.010667211    0.11610712    -0.018907224   -0.036779956   -0.076816679    370.65801      75273.834    
    200000   200            1.0027811     -0.038633003    16.637967      1.504157       21.111237      18.142124     -4.4732705     -558.02197      48.999516      48.260389      48.260389     -0.0077492193  -0.074280936   -0.033868852   -0.013570072    0.024808095   -0.0073907311   378.21566      75264.917    
    204000   204            0.99770688    -0.018123232    16.626846      1.4965457      21.108274      18.123391     -4.4814281      1382.7836      49.009219      48.239125      48.239125     -0.073344839   -0.046317664    0.065292806   -0.025992772    0.024037577    0.025163274    385.62291      75226.713    
    208000   208            0.9993966     -0.0056400993   16.63213       1.4990803      21.111051      18.13121      -4.4789214      601.56637      49.018922      48.241942      48.241942     -0.014675078   -0.026063982    0.023818762    0.029460222    0.051831581    0.0087716665   393.16241      75214.994    
    212000   212            1.003723       0.050579421    16.636069      1.5055698      21.108404      18.141639     -4.4723354     -446.8473       49.028625      48.238994      48.238994      0.021794974    0.060787001    0.069156287    0.0013444201   0.010180343    0.0057368007   400.69248      75201.663    
    216000   216            0.99833721    -0.0069642442   16.637412      1.4974912      21.112391      18.134903     -4.4749797      264.10343      49.038328      48.239475      48.239475     -0.049928596    0.019206668    0.0098291958   0.017549956   -0.020275046    0.018686112    408.18939      75182.439    
    220000   220            0.99547049     0.0085476786   16.627327      1.4931912      21.104925      18.120518     -4.4775978      1758.7903      49.048031      48.224657      48.224657      0.054374009   -0.0097442106  -0.018986762   -3.9902357e-05 -0.024311045   -0.016427033    415.77418      75179.532    
    224000   224            0.99924418     0.019478527    16.633397      1.4988517      21.105561      18.132248     -4.4721645      576.6433       49.057733      48.232408      48.232408     -0.028058668    0.041426711    0.045067538   -0.063961147    0.040511073   -0.046306329    423.38873      75181.742    
    228000   228            0.99996968    -0.0040358427   16.640408      1.4999399      21.105812      18.140348     -4.4654036     -233.01273      49.067436      48.250749      48.250749      0.015732291   -0.0085396525  -0.019300167    0.015499437   -0.001659499    0.0081751984   430.97681      75178.99     
    232000   232            1.0048955      0.051360765    16.637695      1.5073286      21.108592      18.145024     -4.4708968     -692.09128      49.077139      48.220848      48.220848      0.06581286     0.044167227    0.044102209   -0.0064961457   0.0037964767   0.0046536155   438.55102      75173.694    
    236000   236            1.002035      -0.0011565983   16.628696      1.5030378      21.10774       18.131734     -4.4790443      690.49336      49.086842      48.200505      48.200505     -0.010410758    0.036877108   -0.029936146   -0.010342933   -0.047160487    0.010576688    446.02986      75152.252    
    240000   240            0.99987527     0.012359328    16.628638      1.4997983      21.105817      18.128436     -4.4771793      1048.6559      49.096545      48.201801      48.201801      0.019830643    0.0232619     -0.0060145608   0.020150542    0.029296702    0.012876881    453.44737      75121.114    
    244000   244            1.0039447      0.074482296    16.637009      1.5059024      21.109565      18.142912     -4.4725561     -414.57282      49.106248      48.20495       48.20495       0.051534088    0.092349072    0.079563727   -0.011604153   -0.0024010858  -0.028132447    460.96031      75106.304    
    248000   248            0.99919209     0.051125896    16.637395      1.4987735      21.107091      18.136169     -4.4696957      297.149        49.115951      48.200314      48.200314      0.051763126    0.070241195    0.031373367   -0.015587186   -0.0039689488   0.0036412906   468.51612      75098.6      
    252000   252            1.0017822      0.057464157    16.631469      1.5026586      21.106169      18.134127     -4.4747001      526.76141      49.125654      48.201469      48.201469      0.033932627    0.052878715    0.08558113    -0.032174718    0.010651565    0.033456225    475.94139      75070.311    
    256000   256            1.0026088     -0.018228243    16.644832      1.5038985      21.10656       18.14873      -4.4617284     -949.78716      49.135356      48.247652      48.247652     -0.035455751    0.0012513572  -0.020480336   -0.011694965    0.012953508   -0.021760569    483.55229      75071.494    
    260000   260            0.99719659    -0.061793634    16.640808      1.4957803      21.105899      18.136589     -4.4650905      315.52663      49.145059      48.239373      48.239373     -0.051160388   -0.077868713   -0.056351801   -0.00055947579  0.033289407   -0.018777905    491.20368      75078.594    
    264000   264            0.99790928    -0.014603798    16.637513      1.4968493      21.107039      18.134362     -4.4695263      563.88971      49.154762      48.21267       48.21267       0.0076911215   0.017081731   -0.068584247    0.027926527   -0.029268559    0.041514005    498.83764      75082.623    
    268000   268            0.99660594    -0.036381995    16.627391      1.4948943      21.104607      18.122285     -4.4772162      1821.8916      49.164465      48.165854      48.165854     -0.061663726   -0.00054679013 -0.046935468   -0.004513452   -0.01287804     0.0089499902   506.24519      75052.739    
    272000   272            0.99986841    -0.031450768    16.632177      1.499788       21.105079      18.131965     -4.4729021      849.78675      49.174168      48.188346      48.188346     -0.032320752   -0.027365916   -0.034665637    0.00057769252 -0.015419393    0.028083256    513.59274      75014.751    
    276000   276            1.0028378      0.028974643    16.633962      1.504242       21.106346      18.138204     -4.4723834      230.35229      49.183871      48.178589      48.178589      0.011544431    0.039104541    0.036274958    0.018509586   -0.0092678009  -0.031173764    521.04197      74992.287    
    280000   280            1.000635       0.014104713    16.629858      1.5009378      21.106968      18.130796     -4.47711        1009.6776      49.193574      48.155044      48.155044     -0.0020516894   0.050165458   -0.0057996303  -0.0084569691   0.0041775136   0.00092809932  528.47435      74967.862    
    284000   284            0.99689583     0.0091863796   16.629707      1.4953292      21.101652      18.125036     -4.4719451      1620.8336      49.203277      48.171011      48.171011     -0.02201111     0.047109882    0.0024603673   0.02933368     0.038063083    0.0023158433   535.99949      74956.886    
    288000   288            0.99776902    -0.078850194    16.640286      1.4966389      21.108074      18.136925     -4.4677882      422.96294      49.212979      48.190814      48.190814     -0.10089923    -0.022856493   -0.11279485    -0.035709356   -0.0330514      0.024665059    543.32933      74919.077    
    292000   292            0.99876104     0.02754224     16.63738       1.4981269      21.107884      18.135507     -4.4705037      588.58691      49.222682      48.159552      48.159552      0.020225285    0.0024798984   0.059921537   -0.026280055    0.016396726   -0.052958913    550.67906      74884.809    
    296000   296            0.99751559     0.043706627    16.629086      1.4962588      21.106562      18.125345     -4.4774753      1650.198       49.232385      48.130997      48.130997      0.035244353    0.049945116    0.045930412   -0.0077445167   0.025279862   -0.02392327     558.21906      74876.79     
    300000   300            0.99998352    -0.0085123444   16.633092      1.4999606      21.10446       18.133052     -4.4713687      880.43136      49.242088      48.149089      48.149089     -0.018908578   -0.019902959    0.013274504    0.035463313   -0.0051315479   0.0017410744   565.51482      74836.462    
    304000   304            1.001428      -0.0023644703   16.632615      1.5021274      21.103548      18.134742     -4.470933       727.68805      49.251791      48.152873      48.152873     -0.049554443    0.0081869403   0.034274092   -0.0023306036  -0.022020839   -0.044218209    572.92505      74811.95     
    308000   308            1.0055957      0.044910449    16.639679      1.5083789      21.111343      18.148058     -4.4716638     -617.02392      49.261494      48.130421      48.130421      0.050373813    0.023206568    0.061150967   -0.0751522      0.024525523   -0.025469189    580.42621      74799.602    
    312000   312            1.0036731      0.011214248    16.630565      1.505495       21.105976      18.13606      -4.4754109      633.38681      49.271197      48.122495      48.122495     -0.025012433    0.047510803    0.011144373   -0.044826789   -0.010568979   -0.0008035234   587.89726      74783.546    
    316000   316            0.99939729    -0.033681144    16.634034      1.4990813      21.104874      18.133116     -4.4708397      955.55273      49.2809        48.141829      48.141829      0.00075146183 -0.02254631    -0.079248585   -0.017409272    0.0020025534   0.018818399    595.35765      74766.37     
    320000   320            1.000948      -0.079909413    16.643901      1.5014074      21.110078      18.145308     -4.4661769     -273.51894      49.290602      48.165752      48.165752     -0.089380866   -0.053587238   -0.096760135   -0.02907281     0.014282192   -0.023625322    602.68269      74732.654    
    324000   324            1.0050446      0.035761906    16.644957      1.5075522      21.106398      18.152509     -4.4614406     -991.07205      49.300305      48.1512        48.1512       -0.028419871    0.10075183     0.034953761    0.01554861    -0.0088470429   0.01701572     610.27478      74732.291    
    328000   328            1.0023996      0.040041182    16.632938      1.5035847      21.105526      18.136523     -4.4725878      667.64977      49.310008      48.106476      48.106476      0.033274692    0.078335983    0.0085128713   0.0092408414   0.0014174898   0.001074372    617.82597      74726.805    
    332000   332            1.0041585      0.038274389    16.630604      1.5062231      21.103445      18.136827     -4.4728416      656.49896      49.319711      48.103107      48.103107      0.063476775    0.089854127   -0.038507735    0.0092395602  -0.021411159   -0.038748432    625.41176      74725.403    
    336000   336            1.0011399      0.0093487667   16.64409       1.5016952      21.109309      18.145786     -4.4652182     -241.51325      49.329414      48.125699      48.125699      0.0049404426   0.0363798     -0.013273942    0.042929299    0.01645075    -0.0040140219   632.7708       74697.087    
    340000   340            0.9972805     -0.0044345658   16.643309      1.4959062      21.105524      18.139215     -4.462215       452.6016       49.339117      48.14071       48.14071      -0.012160176   -0.007272272    0.0061287511  -0.0020667856  -0.014842622   -0.020161939    640.34615      74694.495    
    344000   344            0.99754536     0.024096197    16.637724      1.4963034      21.105173      18.134028     -4.4674487      1004.518       49.34882       48.119193      48.119193      0.040581693    0.042661806   -0.010954909    0.023881545    0.020302472    7.9682679e-05  647.90461      74689.841    
    348000   348            1.0021386      0.014346401    16.643241      1.5031932      21.10791       18.146434     -4.4646694     -246.87161      49.358523      48.113629      48.113629     -0.029561804    0.063370936    0.0092300717  -0.032138902   -0.0068179447  -0.015997101    655.34876      74672.096    
    352000   352            1.0017776     -0.015250228    16.648128      1.5026517      21.106443      18.15078      -4.4583154     -671.86511      49.368225      48.134675      48.134675     -0.045357472   -0.00130654     0.00091332932  0.029787924    0.002126739    0.044015947    662.83788      74659.648    
    356000   356            1.0018813      0.017314909    16.638181      1.5028072      21.108538      18.140988     -4.4703569      351.86208      49.377928      48.082434      48.082434      0.029671305    0.020757589    0.0015158329  -0.0080701324  -0.013963346    0.0026555794   670.3505       74649.93     
    360000   360            0.99865788     0.026658373    16.633013      1.4979722      21.106432      18.130985     -4.4734189      1397.2432      49.387631      48.075236      48.075236      0.013753234    0.068987563   -0.002765678    0.053874577   -0.0038668917  -0.0031712611   677.83073      74636.695    
    364000   364            0.99745106    -0.0141894      16.633493      1.496162       21.104627      18.129655     -4.4711335      1553.7789      49.397334      48.073653      48.073653     -0.0012570449  -0.027315359   -0.013995797   -0.012872145    0.012156936    0.024120398    685.37619      74630.688    
    368000   368            1.0011007     -0.0032654324   16.643944      1.5016364      21.105623      18.14558      -4.4616797     -57.70404       49.407037      48.091072      48.091072     -0.052331236    0.0036024262   0.038932513   -0.043371103   -0.023521425   -0.040392444    692.91461      74623.891    
    372000   372            0.99973287     0.014572835    16.637024      1.4995847      21.102847      18.136609     -4.4658229      881.95595      49.41674       48.097189      48.097189      0.05620058     0.018125496   -0.030607571    0.0031961263  -0.021116306    0.05149051     700.42531      74614.124    
    376000   376            0.99343407    -0.007959859    16.64422       1.4901366      21.108457      18.134357     -4.4642365      1133.126       49.426443      48.088295      48.088295     -0.042370843   -0.017019687    0.035510953   -0.022823915   -0.043149189   -0.0014090256   707.86431      74596.849    
    380000   380            0.99792628     0.0026732873   16.642018      1.4968748      21.107513      18.138893     -4.4654947      688.36477      49.436146      48.090531      48.090531     -0.0081978979  -0.034237004    0.050454764   -0.014508516    0.025608796   -0.0016998921   715.36389      74586.098    
    384000   384            0.99754909    -0.028795342    16.639378      1.496309       21.108291      18.135687     -4.4689132      1037.4822      49.445848      48.057306      48.057306     -0.068011778   -0.027956987    0.0095827404  -0.037845307    0.01905605     0.0091425385   722.83141      74572.107    
    388000   388            1.0018435      0.016051416    16.630288      1.5027506      21.107392      18.133039     -4.477104       1329.1813      49.455551      48.029675      48.029675      0.034603808   -0.0224845      0.03603494    -0.028888105   -0.011331184   -0.014388761    730.4581       74574.501    
    392000   392            0.99888935    -0.014356947    16.640912      1.4983194      21.111924      18.139232     -4.4710117      714.89917      49.465254      48.052462      48.052462     -0.036978475    0.012974181   -0.019066546   -0.03004566     0.018009691    0.074186023    738.04607      74572.778    
    396000   396            1.0020402      0.023512233    16.641331      1.5030457      21.111382      18.144377     -4.4700511      208.29221      49.474957      48.041329      48.041329     -0.00012229318  0.075763834   -0.0051048415   0.0065646915  -0.0032243542   0.05292726     745.47297      74554.827    
    400000   400            0.99741789    -0.031195957    16.636077      1.4961122      21.106004      18.132189     -4.469927       1477.4101      49.48466       48.045851      48.045851     -0.064120102   -0.024787613   -0.0046801553   0.058192266   -0.016627336    0.017883205    752.99794      74546.797    
    404000   404            0.99983153    -0.055593346    16.635216      1.4997327      21.1094        18.134948     -4.4741846      1214.9363      49.494363      48.035122      48.035122     -0.09309251    -0.012001739   -0.061685789   -0.0087000495  -0.010056247   -0.015077364    760.48608      74535.165    
    408000   408            0.99947955     0.018523726    16.647695      1.4992047      21.10983       18.146899     -4.462135       10.429751      49.504066      48.071429      48.071429      0.0096188159  -0.0014282378   0.047380601   -0.00087317105  0.0014154128   0.051868543    767.89779      74516.2      
    412000   412            1.0025865      0.0051664464   16.640339      1.503865       21.108746      18.144204     -4.4684075      307.10549      49.513769      48.043718      48.043718      0.06149911    -0.031089059   -0.014910712   -0.042151177    0.024550977   -0.02175965     775.31705      74498.183    
    416000   416            1.0027112      0.05756216     16.631286      1.5040522      21.109192      18.135338     -4.4779053      1235.7918      49.523471      47.996291      47.996291      0.022622635    0.046184413    0.10387943     0.015263829   -0.04915864     0.049820589    782.79261      74485.727    
    420000   420            1.0014681      0.0043166805   16.63002       1.5021875      21.106946      18.132207     -4.4769261      1576.9312      49.533174      47.995672      47.995672      0.049201271   -0.042448725    0.0061974953  -0.014945433   -0.00021134927  2.9721364e-05  790.16772      74463.901    
    424000   424            1.0062894      0.047327534    16.634307      1.5094194      21.108165      18.143726     -4.4738584      416.18496      49.542877      47.98778       47.98778       0.063997012    0.057593272    0.020392318    0.018028146   -0.036250289    0.053990556    797.68151      74455.291    
    428000   428            0.99694804     0.029030497    16.638936      1.4954075      21.110099      18.134344     -4.471163       1398.3772      49.55258       48.002928      48.002928      0.0084175013   0.046618075    0.032055915    0.080435783   -0.0077048802  -0.049824942    805.19348      74446.534    
    432000   432            0.99770371    -0.06181871     16.631102      1.496541       21.105466      18.127643     -4.4743646      2105.704       49.562283      47.993815      47.993815     -0.097423737   -0.089763005    0.0017306115  -0.018289583    0.025467687    0.0023981136   812.68789      74436.191    
    436000   436            0.99876863     0.029289886    16.625169      1.4981383      21.109108      18.123308     -4.4839383      2570.1904      49.571986      47.958268      47.958268      0.022158556    0.019858434    0.045852667   -0.011510975    0.018484307   -0.021002144    820.18661      74426.291    
    440000   440            0.99976847    -0.00027245327  16.636732      1.4996381      21.104524      18.13637      -4.4677924      1251.5691      49.581689      48.002917      48.002917      0.014334712    0.015684895   -0.030836967   -0.0040719058   0.028324809    0.030524671    827.62485      74410.998    
    444000   444            1.0013271     -0.0044125131   16.639787      1.501976       21.109137      18.141763     -4.4693509      718.92473      49.591392      47.993424      47.993424     -0.017505983   -0.0075492924   0.011817736    0.00098355011  0.0033446103   0.0058596517   834.93508      74384.442    
    448000   448            0.99808275    -0.029015779    16.629847      1.4971095      21.102517      18.126956     -4.47267        2256.5979      49.601094      47.993473      47.993473     -0.010083552   -0.058136086   -0.0188277      0.026998217    0.042201666   -0.019344777    842.48278      74379.194    
    452000   452            0.99914838     0.0054710264   16.639016      1.498708       21.106769      18.137724     -4.4677529      1173.5563      49.610797      47.982437      47.982437     -0.030277509    0.021864232    0.024826356    0.0097799419  -0.00039631728 -0.010012902    850.00841      74371.975    
    456000   456            1.0038899      0.025850329    16.634268      1.5058202      21.108771      18.140088     -4.4745026      951.41291      49.6205        47.95709       47.95709       0.0065592358   0.047412545    0.023579205    0.0019544982   0.01923429     0.033059578    857.49639      74361.485    
    460000   460            0.9989303     -0.0043820896   16.628673      1.4983808      21.105768      18.127054     -4.4770953      2307.5553      49.630203      47.934531      47.934531      0.014730213   -0.033010731    0.0051342485  -0.039126487   -0.019542298   -0.0054374767   864.92939      74346.322    
    464000   464            0.99754003     0.012426723    16.622686      1.4962954      21.106414      18.118981     -4.4837285      3155.2761      49.639906      47.914557      47.914557      0.014017315   -0.010109156    0.033372011   -0.0040077142   0.048805957   -0.010211817    872.40827      74335.202    
    468000   468            1.0004837     -0.0072295469   16.631218      1.5007109      21.106489      18.131929     -4.4752708      1848.2016      49.649609      47.944308      47.944308      0.025624059    0.019065065   -0.066377765    0.010942781    0.051059715    0.028346698    879.73772      74311.52     
    472000   472            0.99797039    -0.031537503    16.636224      1.496941       21.104913      18.133165     -4.4686889      1741.8405      49.659312      47.969636      47.969636     -0.077877609   -0.012883933   -0.0038509658   0.025161529    0.016536977   -0.013091054    887.18242      74297.768    
    476000   476            0.99540683     0.02041439     16.633118      1.4930957      21.10689       18.126214     -4.4737712      2474.4448      49.669015      47.95265       47.95265       0.061512974   -0.0040698081   0.0038000026   0.005685098   -0.039717567   -0.021345953    894.75396      74294.655    
    480000   480            0.99718691    -0.063506195    16.642078      1.4957658      21.108194      18.137844     -4.4661161      1302.9969      49.678717      47.962297      47.962297     -0.086156343   -0.065581172   -0.038781072    0.0021973594  -0.0037737989  -0.025955901    902.32648      74291.547    
    484000   484            0.99963983    -0.027694307    16.640442      1.4994451      21.107646      18.139887     -4.4672043      1114.0385      49.68842       47.953748      47.953748     -0.094471194    0.01512964    -0.0037413686   0.03935547    -0.018094039    0.032198651    909.77456      74278.206    
    488000   488            0.99700451    -0.017856712    16.630298      1.4954922      21.107105      18.12579      -4.4768066      2579.2437      49.698123      47.918888      47.918888      0.032867096   -0.026226078   -0.060211154   -0.040272278    0.022698276    0.021159732    917.20924      74263.876    
    492000   492            0.99735399    -0.063647966    16.630449      1.4960164      21.105305      18.126466     -4.474856       2530.1731      49.707826      47.933967      47.933967     -0.0687838     -0.05084836    -0.071311737    0.037143489    0.01815573     0.05678411     924.66753      74251.554    
    496000   496            0.99795875    -0.030848171    16.639982      1.4969235      21.107878      18.136905     -4.4678957      1480.4297      49.717529      47.956377      47.956377     -0.0023603762  -0.0091754683  -0.081008669    0.0070033259   0.029610287   -0.028838455    932.16601      74242.512    
    500000   500            0.99979318    -0.055121288    16.640731      1.4996751      21.104492      18.140406     -4.4637603      1141.873       49.727232      47.953116      47.953116     -0.072673185   -0.034399876   -0.058290804   -0.038351955    0.0018751526   0.060143351    939.49998      74220.499    
    504000   504            1.0020952      0.10615413     16.644952      1.5031281      21.107941      18.14808      -4.462989       376.01494      49.736935      47.937275      47.937275      0.10275887     0.11679064     0.098912869    0.030967478   -0.019497059   -0.0019882541   947.01817      74213.155    
    508000   508            0.99827511     0.0059470364   16.637571      1.4973981      21.10603       18.134969     -4.4684584      1740.0876      49.746638      47.920511      47.920511     -0.019366413    0.02015969     0.017047833    0.016416032    0.026611573    0.040768313    954.4413       74198.417    
    512000   512            0.99542371    -0.011142628    16.641332      1.493121       21.107173      18.134453     -4.465841       1813.6692      49.75634       47.929171      47.929171     -0.052878317    0.016969146    0.0024812869  -0.057072235   -0.0041148879  -0.030174602    961.86581      74183.9      
    516000   516            1.0011176     -0.02483006     16.64072       1.5016617      21.103999      18.142382     -4.4632784      1021.0262      49.766043      47.927654      47.927654      0.011305168   -0.068190415   -0.017604933   -0.0080076187   0.015686166   -0.030278653    969.47682      74183.765    
    520000   520            0.99932651    -0.045019666    16.629968      1.4989751      21.103855      18.128943     -4.4738872      2418.7641      49.775746      47.895093      47.895093     -0.11980483     0.016841515   -0.032095684    0.014829786    0.038736828    0.012978141    976.88124      74167.83     
    524000   524            1.0015514      0.028618619    16.634686      1.5023125      21.104477      18.136998     -4.4697909      1613.5148      49.785449      47.901833      47.901833      0.053753959    0.026138806    0.0059630917  -0.057751072   -0.020009905    0.0076713097   984.37339      74158.634    
    528000   528            1.0000432     -0.029344953    16.64516       1.5000501      21.106597      18.14521      -4.4614364      792.32061      49.795152      47.918323      47.918323     -0.0233011     -0.076246395    0.011512637   -0.0073347232   0.023827826   -0.012075772    991.88724      74151.085    
    532000   532            1.0026381     -0.076785124    16.644738      1.5039425      21.107518      18.14868      -4.4627797      456.77229      49.804855      47.922943      47.922943     -0.14333071    -0.04319021    -0.043834453    0.013731351    0.029238558    0.016426156    999.42748      74145.496    
    536000   536            0.99981968     0.053949938    16.637021      1.4997149      21.110707      18.136736     -4.4736862      1701.2449      49.814558      47.865197      47.865197      0.024145       0.069040866    0.068663948    0.0070407394   0.014755324    0.013071027    1006.9266      74136.852    
    540000   540            1.0017159      0.033150359    16.632763      1.5025591      21.107819      18.135323     -4.4750555      1866.14        49.824261      47.846974      47.846974      0.018294703    0.044766387    0.036389986    0.0087221754  -0.027440106   -0.011760071    1014.4177      74127.633    
    544000   544            1.0041063     -0.033840184    16.639572      1.5061448      21.105519      18.145717     -4.4659466      821.16286      49.833963      47.883651      47.883651     -0.087727353   -0.058745668    0.044952471   -0.021220292   -0.0072663683  -0.042441608    1021.9145      74118.855    
    548000   548            1.0023352     -0.00099063755  16.632354      1.5034882      21.10398       18.135843     -4.4716253      1853.1211      49.843666      47.865849      47.865849     -0.017069258    0.014329346   -0.00023200034 -0.0041090736   0.0022243981   0.017535341    1029.4964      74116.226    
    552000   552            1.0003401     -0.00027104178  16.630475      1.5004955      21.105251      18.130971     -4.4747759      2372.4942      49.853369      47.862745      47.862745      0.047213997   -0.010283487   -0.037743636   -0.031861226    0.023185798    0.0096609654   1036.8896      74100.037    
    556000   556            0.99650499    -0.0060050298   16.646336      1.4947429      21.10786       18.141079     -4.4615241      1356.7269      49.863072      47.893777      47.893777      0.0004895775   0.023841604   -0.042346271   -0.011595603   -0.025384087    0.0031432135   1044.3089      74085.826    
    560000   560            1.0051524      0.0046843316   16.641701      1.507714       21.108036      18.149415     -4.4663354      522.35008      49.872775      47.868309      47.868309     -0.02537441    -0.022560487    0.061987892    0.0057132172  -0.0045856821  -0.010074329    1051.8944      74083.418    
    564000   564            1.0001088     -0.0093502059   16.636723      1.5001486      21.107548      18.136872     -4.4708251      1828.3346      49.882478      47.828439      47.828439     -0.023973526   -0.0098218385   0.0057447472  -0.05554702     0.015215969   -0.02955045     1059.4443      74078.452    
    568000   568            0.99882677     0.037641706    16.637867      1.4982255      21.110108      18.136092     -4.4722413      1928.7065      49.892181      47.830737      47.830737      0.13446237     0.0072146628  -0.028751915   -0.029189337   -0.0020355192   0.01296571     1066.8803      74065.533    
    572000   572            1.0037238      0.038573044    16.646228      1.505571       21.110106      18.151799     -4.4638787      338.85633      49.901884      47.84859       47.84859       0.057944671    0.034529635    0.023244826    0.023611178    0.037179627    0.019476621    1074.4297      74060.517    
    576000   576            1.0022558     -0.0018874637   16.641021      1.5033691      21.107841      18.14439      -4.4668202      1118.864       49.911586      47.856485      47.856485     -0.029963731    0.042204801   -0.017903461    0.022579845    0.026362164   -0.024917737    1081.9265      74051.86     
    580000   580            0.99795932     0.015718079    16.637692      1.4969244      21.107592      18.134616     -4.4699001      2140.7045      49.921289      47.835629      47.835629     -0.006448242    0.0252623      0.02834018     0.0098665195   0.020544654    0.0071772951   1089.3041      74035.116    
    584000   584            1.0036956      0.059903801    16.630768      1.5055287      21.104317      18.136297     -4.4735486      1988.5954      49.930992      47.808189      47.808189      0.05975971     0.032685595    0.087266098   -0.0072858744  -0.045257974    0.013943906    1096.7365      74022.2      
    588000   588            1.0060809     -0.029406338    16.638348      1.5091067      21.109353      18.147454     -4.4710056      865.13323      49.940695      47.817062      47.817062     -0.021796203   -0.025230941   -0.041191868    0.029325942   -0.011055566   -0.0027075418   1104.1512      74008.177    
    592000   592            0.99947377    -0.0077198293   16.634844      1.499196       21.109677      18.13404      -4.4748322      2260.0672      49.950398      47.804923      47.804923      0.040905293   -0.023415112   -0.040649668   -0.0068086495  -0.013120665   -0.023831271    1111.5705      73994.543    
    596000   596            0.99767957     0.030059911    16.636574      1.4965048      21.106505      18.133079     -4.4699307      2378.522       49.960101      47.806028      47.806028      0.035550016    0.086288028   -0.03165831     0.039620419    0.0076499048   0.0068019334   1118.9798      73980.337    
    600000   600            1.001818      -0.086997347    16.644613      1.5027124      21.107191      18.147325     -4.4625785      938.5193       49.969804      47.847804      47.847804     -0.1101057     -0.054287785   -0.096598559    0.044704616    0.0063830832  -0.0076752632   1126.4385      73969.463    
    604000   604            1.0000558      0.0076850587   16.642607      1.500069       21.107543      18.142676     -4.4649365      1435.1847      49.979507      47.81345       47.81345       0.035057685    0.0071929574  -0.019195466    0.031389557   -0.0083507738  -0.014439636    1133.8863      73957.921    
    608000   608            0.99993392     0.01346561     16.635833      1.4998863      21.104592      18.135719     -4.4687593      2168.3393      49.989209      47.81102       47.81102      -0.034883466    0.023351627    0.051928669    0.016513641   -0.018033164    0.017065713    1141.4175      73951.839    
    612000   612            0.9963906      0.003864576    16.632833      1.4945713      21.102433      18.127404     -4.4696002      3040.5212      49.998912      47.781508      47.781508     -0.026381645    0.0086813505   0.029294023    0.060841137    0.020397739    0.0079719097   1148.8608      73940.081    
    616000   616            0.9954014     -0.0015972805   16.630013      1.4930875      21.104819      18.123101     -4.4748059      3501.7257      50.008615      47.791542      47.791542      0.019976866   -0.030778312    0.0060096042  -0.011814838    0.06847051     0.0031465219   1156.3953      73934.206    
    620000   620            0.99794141    -0.032530429    16.639088      1.4968975      21.105847      18.135986     -4.466759       2201.3313      50.018318      47.811169      47.811169     -0.084404634   -0.0044288326  -0.0087578203   0.0053514365   0.038981709    0.041329598    1163.953       73929.791    
    624000   624            1.0034529      0.037813434    16.639857      1.5051647      21.107046      18.145022     -4.4671884      1295.6403      50.028021      47.787503      47.787503      0.053274555    0.041347759    0.018817987    0.010584037    0.040444574   -0.0004200849   1171.6339      73933.106    
    628000   628            1.0020789     -0.027239581    16.627312      1.5031037      21.103677      18.130415     -4.4763659      2812.2402      50.037724      47.754644      47.754644     -0.026792811   -0.028445128   -0.026480804   -0.028756754   -0.0075174151  -0.028437815    1179.1426      73925.48     
    632000   632            1.0016467      0.028810585    16.634461      1.5024554      21.108625      18.136917     -4.4741639      2166.0024      50.047427      47.74249       47.74249       0.076710068    0.014090168   -0.0043684822   0.059737463    0.060862332    0.021495388    1186.6831      73919.842    
    636000   636            1.0024118     -0.017660451    16.632847      1.503603       21.105536      18.13645      -4.4726888      2233.692       50.05713       47.768193      47.768193     -0.0055473481   0.0177681     -0.065202104    0.046578368    0.050264301   -0.00065948564  1194.1486      73909.538    
    640000   640            0.99926283    -0.011910583    16.633113      1.4988796      21.10849       18.131992     -4.4753775      2710.7254      50.066832      47.75305       47.75305      -0.012743933    0.021809516   -0.044797333    0.012610454    0.0075801788  -0.071466563    1201.7241      73906.033    
    644000   644            0.99697935    -0.01783403     16.639312      1.4954544      21.107716      18.134766     -4.4684037      2447.2477      50.076535      47.767637      47.767637     -0.0012133839  -0.034980462   -0.017308246   -0.018293854   -0.0073894874   0.051852407    1209.2573      73899.891    
    648000   648            1.0038837      0.029491733    16.640187      1.5058108      21.108049      18.145998     -4.4678624      1316.0714      50.086238      47.742503      47.742503      0.035759044    0.077545012   -0.024828856   -0.014698733    0.019089125    0.011711049    1216.854       73897.588    
    652000   652            0.999933       0.013798516    16.636944      1.4998849      21.10853       18.136829     -4.4715867      2275.9427      50.095941      47.733596      47.733596     -0.025471141   -0.042026641    0.10889333    -0.017760037    0.01089809     0.0077940396   1224.329       73887.879    
    656000   656            1.0005857     -0.022869275    16.63767       1.500864       21.10869       18.138534     -4.4710207      2121.5086      50.105644      47.734883      47.734883     -0.083833146   -0.0077470345   0.022972356    0.029751087    0.0018312046  -0.003352475    1231.9108      73884.6      
    660000   660            1.0013927     -0.0059253814   16.649513      1.5020744      21.109062      18.151587     -4.4595494      803.96288      50.115347      47.764311      47.764311      0.008498879   -0.012728452   -0.013546571   -0.056003544   -0.025758893    0.023649949    1239.3865      73874.946    
    664000   664            1.0026788     -0.017397612    16.633241      1.5040036      21.105282      18.137245     -4.4720405      2293.7873      50.12505       47.733444      47.733444     -0.011031033   -0.018159878   -0.023001926    0.03972708     0.0079625111  -0.026320329    1246.7545      73858.936    
    668000   668            0.99978685    -0.04950032     16.633959      1.4996656      21.104518      18.133624     -4.4705597      2684.9103      50.134753      47.733737      47.733737     -0.066178333    0.017811055   -0.10013368     0.0040858178  -0.017052677    0.00030101159  1254.3138      73854.294    
    672000   672            1.0011466      0.0095573605   16.636907      1.5017053      21.109298      18.138613     -4.4723903      2193.7877      50.144455      47.720499      47.720499      0.014560472   -0.011196517    0.025308126    0.024322382   -0.028570765   -0.012677222    1261.938       73853.417    
    676000   676            1.0018711      0.023886682    16.641452      1.502792       21.111681      18.144244     -4.4702284      1636.9833      50.154158      47.709882      47.709882      0.0027607793   0.026714031    0.042185236   -0.015537598    0.012314799   -0.015567693    1269.3432      73839.723    
    680000   680            0.99999403    -0.0060446169   16.630078      1.4999764      21.108584      18.130054     -4.4785064      3110.8946      50.163861      47.685457      47.685457      0.021620467   -0.033322073   -0.006432245    0.0039434007  -0.031427248    0.02650697     1276.8211      73830.301    
    684000   684            1.0042797     -0.021120323    16.629615      1.5064049      21.111136      18.13602      -4.4815204      2519.825       50.173564      47.669454      47.669454     -0.039365175   -0.076760954    0.052765161   -0.028735148   -0.020630198    0.0021083607   1284.2778      73819.686    
    688000   688            0.99789651    -0.03280712     16.640986      1.4968302      21.108385      18.137816     -4.4673988      2355.5807      50.183267      47.714551      47.714551     -0.046456997    0.0057031592  -0.057667522    0.016351713   -0.035794094   -0.0049790927   1291.8191      73813.942    
    692000   692            1.002064       0.086054809    16.639219      1.5030813      21.107617      18.142301     -4.4683978      1915.4975      50.19297       47.685062      47.685062      0.10985801     0.036301805    0.11200461    -0.028999739   -0.030697077   -0.048968426    1299.3422      73807.143    
    696000   696            0.99828085    -0.002742835    16.633035      1.4974067      21.103569      18.130441     -4.4705345      3151.1161      50.202673      47.69707       47.69707      -0.0462636     -0.006493725    0.04452882    -0.025338322   -0.023839012    0.014374666    1306.7404      73793.28     
    700000   700            0.9991389     -0.035857138    16.639363      1.4986937      21.106754      18.138057     -4.4673906      2391.0715      50.212376      47.715661      47.715661      0.0024689618  -0.081163808   -0.028876567    0.024275142    0.0044420943   0.03369255     1314.2558      73786.075    
    704000   704            0.99899951    -0.043078827    16.640658      1.4984847      21.108641      18.139142     -4.4679835      2300.3788      50.222078      47.697916      47.697916     -0.052549934   -0.073905081   -0.0027814665  -0.06673699     0.050781591    0.0058091735   1321.7641      73778.472    
    708000   708            0.99538233    -0.021518854    16.638551      1.4930589      21.107188      18.131609     -4.4686373      3092.5265      50.231781      47.68711       47.68711      -0.03182589    -0.028552915   -0.0041777564   0.027205804   -0.033285089   -0.027907171    1329.2215      73768.036    
    712000   712            0.99695939     0.033291394    16.629316      1.4954245      21.103542      18.12474      -4.4742268      3816.3552      50.241484      47.66126       47.66126       0.052442091    0.048498837   -0.0010667473  -0.034126134    0.050557463   -0.015116667    1336.5563      73750.877    
    716000   716            1.0011403      0.022114735    16.635465      1.5016958      21.103617      18.137161     -4.4681522      2563.1735      50.251187      47.674423      47.674423      0.050263315   -0.01165783     0.027738719   -0.018489564    0.029301155   -0.00095962252  1344.0317      73741.541    
    720000   720            1.0026614     -0.017809311    16.635834      1.5039774      21.107561      18.139811     -4.471727       2311.1564      50.26089       47.666054      47.666054      0.011399957   -0.054994704   -0.0098331861   0.013401382   -0.010736815   -0.0032793425   1351.4977      73731.706    
    724000   724            0.99563748    -0.0388116      16.631657      1.4934416      21.10609       18.125098     -4.4744335      3839.1078      50.270593      47.646397      47.646397     -0.060902843   -0.050340304   -0.0051916513   0.011038422    0.0044304675  -0.0066423551   1358.9906      73723.363    
    728000   728            0.99872727     0.021706982    16.634362      1.4980763      21.103874      18.132438     -4.4695114      3106.5415      50.280296      47.662111      47.662111      0.019234792   -0.000414743    0.046300898   -0.037545296    0.011747771    0.014197135    1366.5788      73720.167    
    732000   732            0.99912569    -0.043463182    16.643395      1.4986739      21.109324      18.142069     -4.4659293      2139.3754      50.289999      47.692946      47.692946     -0.048065317   -0.021871019   -0.060453209    0.046882705   -0.0045330695   0.014556193    1373.9126      73703.28     
    736000   736            0.99771824    -0.013273001    16.636882      1.4965628      21.104238      18.133445     -4.4673565      3043.2675      50.299701      47.666695      47.666695     -0.040316581   -0.0040088383   0.0045064177  -0.0062947883  -0.047258026   -0.0017637388   1381.3878      73694.038    
    740000   740            0.99789746    -0.017463485    16.63602       1.4968316      21.106754      18.132851     -4.470734       3123.9587      50.309404      47.655275      47.655275     -0.091283241    0.046742345   -0.0078495586   0.014188249    0.0035089764   0.042070543    1388.7608      73679.391    
    744000   744            0.99823759    -0.037565792    16.643996      1.4973418      21.109461      18.141338     -4.4654649      2274.2406      50.319107      47.659247      47.659247     -0.048506903    0.0061771141  -0.070367586   -0.019970994    0.018014681    0.025796401    1396.2036      73668.504    
    748000   748            1.0012773     -0.081564766    16.635762      1.5019013      21.106468      18.137663     -4.4707058      2670.8676      50.32881       47.656848      47.656848     -0.11014758    -0.077120869   -0.057425852   -0.014838288    0.0078365599  -0.010201111    1403.721       73661.575    
    752000   752            0.9967126      0.0049674745   16.635073      1.4950543      21.106131      18.130127     -4.4710579      3463.4172      50.338513      47.628826      47.628826     -0.043113482    0.059265399   -0.0012494936   0.040147482   -0.042112264   -0.018997159    1411.1243      73648.678    
    756000   756            1.000694      -0.036304522    16.636587      1.5010264      21.104324      18.137614     -4.4677369      2716.0588      50.348216      47.623887      47.623887     -0.059178166   -0.0023595371  -0.047375862   -0.028709567   -0.024299497   -0.0084734118   1418.5615      73637.601    
    760000   760            1.0067655      0.0017719724   16.641485      1.5101335      21.113506      18.151619     -4.4720206      1300.4237      50.357919      47.614152      47.614152     -0.0025666908  -0.026365776    0.034248384    0.020838645    0.011948367   -0.013671625    1425.9929      73626.266    
    764000   764            1.0019001      0.00019082833  16.635674      1.5028355      21.106538      18.13851      -4.4708637      2664.0376      50.367622      47.620799      47.620799     -0.015323312    0.0022784486   0.013617349   -0.046376703   -0.0045243917  -0.030147268    1433.5578      73621.824    
    768000   768            0.99961497    -0.023130439    16.632935      1.4994078      21.105189      18.132343     -4.4722539      3315.7614      50.377324      47.624531      47.624531     -0.057840409   -0.010156489   -0.001394418   -0.029325362   -0.01327178    -0.013782698    1441.0356      73612.901    
    772000   772            1.0005335     -0.01000144     16.636259      1.5007856      21.105992      18.137045     -4.4697329      2854.3874      50.387027      47.618396      47.618396      0.051163656   -0.041858766   -0.039309209    0.028490232   -0.0066054322   0.013113937    1449.4167      73649.896    
    776000   776            1.0028525      0.0045916386   16.63982       1.5042641      21.107245      18.144084     -4.4674252      2152.9575      50.39673       47.599585      47.599585     -0.045226431    0.023704697    0.03529665     0.0034727001   0.018278696   -0.007708617    1456.9748      73644.82     
    780000   780            1.0000917      0.036458163    16.632177      1.5001228      21.104387      18.1323       -4.47221        3380.3983      50.406433      47.594823      47.594823      0.028493776    0.055594784    0.025285928    0.027429185   -0.018025929    0.013452197    1464.5265      73639.396    
    784000   784            1.0023352      0.019678983    16.634609      1.5034881      21.107323      18.138097     -4.472715       2806.6523      50.416136      47.591679      47.591679     -0.0027031666   0.037201224    0.024538891   -0.010922975    0.0035436269  -0.003626596    1472.0673      73633.408    
    788000   788            0.9960863      0.028681734    16.634609      1.4941149      21.105529      18.128724     -4.4709208      3787.4402      50.425839      47.575356      47.575356     -0.029354046    0.060446366    0.054952881   -0.024132796   -0.035658667    0.033265787    1479.5531      73624.665    
    792000   792            0.99997343    -0.027656125    16.631282      1.4999455      21.103415      18.131228     -4.4721334      3550.7039      50.435542      47.565936      47.565936      0.060538245   -0.079521721   -0.063984898    0.058305961    0.019010959    0.018836556    1486.9639      73612.222    
    796000   796            1.0076068      0.025060584    16.629075      1.5113954      21.106575      18.14047      -4.4775001      2623.1009      50.445245      47.536609      47.536609      0.03360602     0.034645143    0.0069305886  -0.004202233    0.03449247    -0.011741944    1494.4944      73605.729    
    800000   800            0.99920166     0.056056948    16.635698      1.4987879      21.107657      18.134486     -4.4719589      3256.4325      50.454947      47.548178      47.548178      0.071504531    0.090655002    0.0060113105   0.0017136401   0.0049483946  -0.010417811    1501.9475      73595.426    
    804000   804            1.0056493      0.0084187521   16.631822      1.5084592      21.107032      18.140281     -4.4752102      2682.2295      50.46465       47.55675       47.55675       0.00040586021  0.072451911   -0.047601515   -0.035817557   -0.0027195054  -0.017413836    1509.2792      73579.238    
    808000   808            1.0058314     -0.0047675855   16.635179      1.5087323      21.109998      18.143912     -4.4748189      2329.8955      50.474353      47.552111      47.552111      0.0079382419  -0.032814688    0.010573689    0.045093424   -0.015434445   -7.2510855e-05  1516.6547      73565.262    
    812000   812            1.000958       0.029129906    16.633023      1.5014224      21.106062      18.134446     -4.4730387      3319.9861      50.484056      47.535819      47.535819      0.03071044    -0.0061616678   0.062840944    0.0058577325   0.0060994544   0.02476041     1524.098       73554.621    
    816000   816            1.0039673      0.0027184484   16.63394       1.5059363      21.105443      18.139876     -4.4715026      2783.1839      50.493759      47.552754      47.552754      0.039985362   -0.013484617   -0.018345399   -0.014686393   -0.029041821   -0.0093698078   1531.5475      73544.309    
    820000   820            0.99989497    -0.018968501    16.64509       1.4998278      21.106896      18.144918     -4.4618062      2286.4388      50.503462      47.582554      47.582554      0.01457253     0.0014023471  -0.072880381    0.0054662969   0.01005613     0.0091526474   1538.9666      73532.573    
    824000   824            1.001168      -0.1131809      16.636096      1.5017373      21.105888      18.137833     -4.4697917      3031.8377      50.513165      47.562656      47.562656     -0.13743925    -0.074899323   -0.12720414    -0.034995499   -0.034660329   -0.01058095     1546.3309      73518.276    
    828000   828            0.99785133     0.033719179    16.63505       1.4967624      21.105164      18.131812     -4.4701142      3668.9463      50.522868      47.538051      47.538051      0.050175989   -0.0035004428   0.05448199    -0.039415421   -0.012132661   -0.020116933    1553.8926      73513.381    
    832000   832            0.99008105    -0.00023324152  16.632737      1.4851071      21.105723      18.117844     -4.4729865      5120.2057      50.53257       47.535647      47.535647     -0.0077554391  -0.0075070242   0.014562739   -0.012609505   -0.0022811473   0.02039661     1561.3923      73505.544    
    836000   836            0.99372749    -0.02753667     16.63816       1.4905767      21.10849       18.128736     -4.4703304      4023.5113      50.542273      47.550063      47.550063      0.0015125773  -0.015724284   -0.068398305   -0.010772186   -0.0040237033   0.0013637056   1568.7383      73490.509    
    840000   840            1.0017421     -0.0080304171   16.638318      1.5025986      21.103755      18.140917     -4.4654363      2794.4976      50.551976      47.559263      47.559263     -0.0051984276   0.031212931   -0.050105755   -0.02453676    -0.040417225   -0.029818315    1576.1502      73478.621    
    844000   844            1.0042487     -0.008923443    16.636219      1.5063583      21.106969      18.142578     -4.4707498      2644.0417      50.561679      47.53472       47.53472       0.061541316   -0.061115351   -0.027196294   -0.0064731828   0.032604692    0.02824953     1583.6481      73470.765    
    848000   848            1.00078        0.020649052    16.630432      1.5011553      21.107243      18.131587     -4.4768106      3790.1445      50.571382      47.49215       47.49215      -0.0064975352   0.014808321    0.053636371    0.04911425     0.0074042749  -0.050236322    1591.0077      73456.526    
    852000   852            1.0022126      0.033377541    16.634815      1.5033042      21.104446      18.13812      -4.4696301      3140.5545      50.581085      47.505389      47.505389      0.010654469    0.07821895     0.011259205   -0.042473612    0.05171315     0.022165955    1598.3463      73441.387    
    856000   856            1.0055584      0.0075838053   16.634954      1.5083229      21.105676      18.143277     -4.4707219      2631.7983      50.590788      47.521447      47.521447     -0.01407419     0.0068864557   0.02993915     0.028527134    0.031756327   -0.012170166    1605.9769      73439.672    
    860000   860            0.99944231    -0.0050651503   16.63118       1.4991488      21.102834      18.130328     -4.4716547      3978.9164      50.60049       47.496178      47.496178     -0.013797606    0.030827808   -0.032225653   -0.03394231     0.029428658   -0.0074673011   1613.4668      73431.503    
    864000   864            0.99691577     0.0069422994   16.635056      1.4953591      21.10606       18.130415     -4.4710039      3989.5476      50.610193      47.505403      47.505403      0.0041396238   0.011084264    0.0056030107  -0.011369491    0.016652336    0.005093585    1621.0933      73429.524    
    868000   868            0.99607733    -0.034054565    16.647105      1.4941014      21.107072      18.141206     -4.4599678      2903.6738      50.619896      47.536582      47.536582     -0.0236132     -0.073502001   -0.0050484941  -0.014868608   -0.023174694    0.013735673    1628.3448      73410.584    
    872000   872            1.0053655     -0.014866695    16.645393      1.5080335      21.114016      18.153426     -4.4686229      1671.0166      50.629599      47.502786      47.502786     -0.027283443    0.0042133155  -0.021529959   -0.019089272    0.03909133    -0.028961847    1635.7471      73398.523    
[...]
  39768000   39768          0.99833572    -0.059308722    16.645006      1.497489       21.110618      18.142495     -4.4656123      125221.18      144.98035      28.087569      28.087569     -0.26807479     0.035922557    0.054226067   -0.0099025502   0.02092908     0.047006183    77734.309      453.48923    
  39772000   39772          0.99905291    -0.17182909     16.649284      1.4985647      21.112246      18.147849     -4.4629622      124681.61      144.99005      28.100089      28.100089     -0.47024961    -0.018865043   -0.02637262     0.0086706095   0.022667345   -0.041136548    77742.803      445.67432    
  39776000   39776          1.0013723     -0.1759835      16.653867      1.5020437      21.110785      18.155911     -4.4569173      123865.08      144.99976      28.105764      28.105764     -0.3931679     -0.024668867   -0.11011372     0.0025361819  -0.03444579    -0.050121593    77750.989      437.85754    
  39780000   39780          1.0012272     -0.089686166    16.637992      1.5018262      21.10732       18.139818     -4.4693287      125524.02      145.00946      28.073625      28.073625     -0.33782058     0.082219396   -0.013457312   -0.038773026    0.0078032841   0.017848246    77759.569      430.04286    
  39784000   39784          0.99777953    -0.088009372    16.642796      1.4966547      21.109445      18.139451     -4.4666485      125571.4       145.01916      28.07114       28.07114      -0.32177519     0.068530396   -0.01078332    -0.0043873714   0.00058533287  0.010082389    77767.952      422.22696    
  39788000   39788          1.0038237     -0.10670357     16.645832      1.5057208      21.107798      18.151553     -4.4619658      124340.64      145.02887      28.085654      28.085654     -0.3728023     -0.00014311106  0.052834713    0.0026878084   0.0019714923  -0.014749978    77776.412      414.41137    
  39792000   39792          0.99838344    -0.068795185    16.64762       1.4975606      21.112031      18.145181     -4.464411       125003.73      145.03857      28.077891      28.077891     -0.32655809     0.10992645     0.010246088   -0.030621936   -0.015566958   -0.027571855    77784.893      406.59574    
  39796000   39796          1.0033905     -0.071424659    16.631975      1.5050711      21.105029      18.137046     -4.4730547      125846.6       145.04827      28.065499      28.065499     -0.29116397     0.075046204    0.0018437865   0.016791929   -0.0088446784  -0.049398861    77793.143      398.7788     
  39800000   39800          1.0004451     -0.1083856      16.647359      1.5006531      21.108388      18.148012     -4.4610283      124732.47      145.05797      28.081746      28.081746     -0.37422199    -0.023736841    0.072802024   -0.017889364    0.0041179463   0.0029529272   77801.526      390.96244    
  39804000   39804          1.0019977     -0.070266633    16.647728      1.5029818      21.112319      18.15071      -4.4645904      124465.46      145.06768      28.086907      28.086907     -0.2475747      0.02752243     0.0092523737  -0.0043235539   0.013974326   -0.02586654     77810.034      383.14658    
  39808000   39808          0.9975239     -0.12175401     16.641844      1.4962713      21.108616      18.138116     -4.466772       125765.78      145.07738      28.077595      28.077595     -0.37063295     0.018263705   -0.012892793    0.04328367     0.023434048   -0.012965264    77818.455      375.33017    
  39812000   39812          0.9976924     -0.10598583     16.647919      1.496524       21.106781      18.144443     -4.4588621      125127.08      145.08708      28.085225      28.085225     -0.35032286     0.015527842    0.016837539   -0.0047489038  -0.042939248   -0.015551635    77826.93       367.51389    
  39816000   39816          1.0056383     -0.098384856    16.644218      1.5084428      21.107005      18.15266      -4.4627869      124294.35      145.09679      28.080318      28.080318     -0.39382694     0.066911737    0.03176063     0.031229354    0.00709369     0.012585238    77835.35       359.69722    
  39820000   39820          0.99903429    -0.14923868     16.644295      1.4985368      21.106358      18.142832     -4.4620635      125311.58      145.10649      28.077216      28.077216     -0.41976071    -0.042855062    0.014899736    0.049181687    0.012386312   -0.015962426    77843.434      351.87891    
  39824000   39824          0.99092557    -0.12355798     16.645255      1.4863739      21.108491      18.131629     -4.4632359      126469.65      145.11619      28.078609      28.078609     -0.36920998     0.012486846   -0.013950787    0.037344089   -0.029856574    0.014803968    77851.745      344.06155    
  39828000   39828          0.9973827     -0.12920225     16.650448      1.4960595      21.108249      18.146508     -4.4578006      124954.21      145.12589      28.096269      28.096269     -0.33157107     0.0026415983  -0.058677269   -0.063471198   -0.0016727218  -0.013030251    77860.018      336.24393    
  39832000   39832          0.99909107    -0.1550051      16.652663      1.498622       21.108991      18.151285     -4.4563278      124474.38      145.1356       28.099742      28.099742     -0.38496507    -0.096943463    0.01689322    -0.00032915191  0.053457823    0.032886011    77868.288      328.4262     
  39836000   39836          0.99619281    -0.13307759     16.646303      1.4942746      21.105641      18.140577     -4.4593388      125581.64      145.1453       28.080058      28.080058     -0.39810244    -0.025237091    0.02410675    -0.0063776967   0.0086830997   0.02877632     77876.648      320.60875    
  39840000   39840          0.9986517     -0.079485735    16.644783      1.4979629      21.109589      18.142746     -4.464806       125368.97      145.155        28.07049       28.07049      -0.32740695     0.070221784    0.018727962    0.054536943    0.011499271   -0.0053009341   77885.217      312.79204    
  39844000   39844          1.0021317     -0.12396472     16.651987      1.5031829      21.107845      18.15517      -4.4558576      124105.34      145.16471      28.093464      28.093464     -0.34661074    -0.0054009671  -0.019882467    0.039111743   -0.0071449337  -0.014892029    77893.658      304.97467    
  39848000   39848          0.99838981    -0.09136943     16.644767      1.4975701      21.105836      18.142338     -4.4610689      125430.18      145.17441      28.081414      28.081414     -0.39717949     0.051952127    0.071119072    0.010335596   -0.046758741   -0.014938487    77901.892      297.15638    
  39852000   39852          0.99576185    -0.16316831     16.650892      1.4936282      21.109224      18.14452      -4.4583325      125216.38      145.18411      28.08851       28.08851      -0.40655521    -0.048299365   -0.034650372   -0.026998096    0.021151478    0.0031277321   77910.176      289.3382     
  39856000   39856          1.0034017     -0.16980421     16.647063      1.5050878      21.106251      18.152151     -4.4591874      124443.82      145.19381      28.089138      28.089138     -0.47220895    -0.033369835   -0.0038338508   0.084531968   -0.0026655964   0.021898237    77918.688      281.52075    
  39860000   39860          0.99674131    -0.14916972     16.64057       1.4950974      21.104594      18.135667     -4.4640244      126143.12      145.20352      28.073396      28.073396     -0.40224942    -0.03824769    -0.007012064   -0.042983608   -0.012441148   -0.026699575    77927.009      273.70249    
  39864000   39864          1.0001607     -0.14358288     16.645655      1.5002263      21.104594      18.145882     -4.4589385      125105.88      145.21322      28.08531       28.08531      -0.41616775    -0.049207195    0.034626294    0.0025428052  -0.03118671     0.026145559    77935.442      265.88451    
  39868000   39868          1.0013488     -0.13397924     16.650677      1.5020085      21.111243      18.152685     -4.4605667      124418.38      145.22292      28.077425      28.077425     -0.36266271    -0.0073835952  -0.0318914     -0.023339153    0.0058015986   0.026417834    77943.78       258.06609    
  39872000   39872          0.999402      -0.12603822     16.647243      1.4990884      21.106954      18.146331     -4.4597109      125079.16      145.23263      28.076656      28.076656     -0.39807014     0.0089864436   0.010969038    0.024201417    0.0046770099   0.040259721    77952.238      250.24796    
  39876000   39876          0.99927961    -0.12244459     16.644512      1.4989048      21.111057      18.143417     -4.4665445      125387.57      145.24233      28.067844      28.067844     -0.36228652    -0.025168812    0.020121563    0.0035795342  -0.030358077    0.039631139    77960.48       242.42902    
  39880000   39880          0.99959212    -0.15862014     16.647101      1.4993736      21.109101      18.146474     -4.4620008      125083.98      145.25203      28.07959       28.07959      -0.39462067    -0.054840752   -0.02639898     0.026993265   -0.015937413    0.0035796112   77968.757      234.6101     
  39884000   39884          0.99925071    -0.19175216     16.651183      1.4988614      21.10826       18.150044     -4.4570774      124727.7       145.26173      28.088671      28.088671     -0.43422554    -0.047114464   -0.093916478    0.013612617   -0.029570453    0.0014177985   77976.892      226.79068    
  39888000   39888          0.99651174    -0.098117732    16.647081      1.494753       21.108717      18.141834     -4.461636       125578.76      145.27144      28.065802      28.065802     -0.38351451     0.030912902    0.058248407   -0.0054040586   0.0078331384   0.009573397    77985.237      218.97178    
  39892000   39892          1.0008927     -0.10188301     16.64211       1.5013245      21.10757       18.143434     -4.46546        125424.49      145.28114      28.051563      28.051563     -0.37364274     0.01178326     0.056210443    0.038429651    0.0063326585   0.031398804    77993.76       211.15327    
  39896000   39896          1.0055666     -0.12539166     16.647449      1.5083351      21.104856      18.155784     -4.4574073      124168.15      145.29084      28.075567      28.075567     -0.31670621    -0.048455545   -0.01101322    -0.027277723    0.0037343773  -0.018108267    78002.239      203.33449    
  39900000   39900          1.0032691     -0.14029609     16.640829      1.504889       21.102897      18.145718     -4.4620683      125209.52      145.30055      28.06024       28.06024      -0.37179124    -0.03606935    -0.01302769     0.038732819    0.033248989    0.034611633    78010.668      195.51546    
  39904000   39904          0.99508634    -0.099744736    16.642081      1.4926149      21.109133      18.134696     -4.4670522      126349.03      145.31025      28.046072      28.046072     -0.3505304      0.028677655    0.022618542   -0.011234826    0.044087598    0.013194431    78019.542      187.69737    
  39908000   39908          1.0013425     -0.11057604     16.646317      1.5019991      21.107566      18.148316     -4.4612492      124962.85      145.31995      28.060405      28.060405     -0.38158426     0.016353395    0.033502754    0.041802303    0.018385088    0.023849355    78029.097      179.88065    
  39912000   39912          1.0037107     -0.055296806    16.649658      1.5055514      21.108814      18.15521      -4.4591561      124266.01      145.32965      28.063068      28.063068     -0.28700834     0.010377815    0.11074011     0.0081838756   0.040774003   -0.023980646    78038.423      172.06307    
  39916000   39916          1.0012514     -0.08102498     16.643519      1.5018624      21.108338      18.145381     -4.4648191      125283.02      145.33936      28.051356      28.051356     -0.28412547     0.064700081   -0.02364955     0.03279784     0.0073978893   0.011807311    78047.115      164.24385    
  39920000   39920          0.99770353    -0.11532876     16.642661      1.4965407      21.107101      18.139201     -4.4644407      125925.98      145.34906      28.047683      28.047683     -0.36990426     0.029442343   -0.005524363    0.01599713     0.027950871    0.014485847    78055.554      156.42396    
  39924000   39924          1.0019141     -0.10023794     16.647262      1.5028565      21.112068      18.150119     -4.4648059      124816.92      145.35876      28.052618      28.052618     -0.35520658     0.015523912    0.038968853    0.038576853   -0.052375966   -0.0029655271   78063.941      148.60383    
  39928000   39928          1.0022088     -0.085451101    16.644457      1.5032985      21.109382      18.147756     -4.4649246      125068.52      145.36847      28.042691      28.042691     -0.30084123     0.016856324    0.0276316     -0.027712185    0.00075285461  0.011911437    78072.22       140.78341    
  39932000   39932          0.99601478    -0.19951558     16.636636      1.4940076      21.108977      18.130644     -4.4723414      126832.33      145.37817      28.040213      28.040213     -0.41458077    -0.094550301   -0.089415656    0.038057474   -0.0011941756  -0.027364472    78080.463      132.96282    
  39936000   39936          0.99710049    -0.14618028     16.641824      1.4956361      21.107205      18.13746      -4.4653815      126143.37      145.38787      28.054694      28.054694     -0.40442109     0.027230131   -0.061349893    0.015138134    0.016476221    0.0095224744   78088.822      125.14234    
  39940000   39940          1.0019019     -0.12626049     16.645646      1.5028383      21.107929      18.148485     -4.4622822      125023.1       145.39757      28.051052      28.051052     -0.34540161    -0.01016944    -0.023210421   -0.045969291   -0.01640297     0.009616842    78097.373      117.32204    
  39944000   39944          1.0019853     -0.13340241     16.647711      1.5029632      21.10934       18.150675     -4.461629       124808.41      145.40728      28.057961      28.057961     -0.38684342     0.0058502943  -0.019214102    0.045850454    0.041306441   -0.01336736     78105.808      109.50143    
  39948000   39948          1.0005453     -0.14382858     16.638096      1.5008033      21.103527      18.138899     -4.4654312      126025.05      145.41698      28.047155      28.047155     -0.41745126    -0.011509951   -0.0025245397  -0.00030103677 -0.013662069    0.013602908    78114.286      101.68076    
  39952000   39952          1.0010385     -0.11511171     16.643703      1.5015431      21.107224      18.145246     -4.4635217      125384.42      145.42668      28.052072      28.052072     -0.35665539    -0.015361998    0.02668226    -0.0099032966   0.0095232715  -0.0031765545   78122.938      93.860158    
  39956000   39956          1.0009874     -0.13055667     16.649554      1.5014665      21.110248      18.15102      -4.4606939      124802.45      145.43639      28.053474      28.053474     -0.35927677    -0.023699272   -0.0086939767   0.037387044    0.0028485412   0.035183094    78131.409      86.039193    
  39960000   39960          1.0014301     -0.13777255     16.638405      1.5021304      21.104789      18.140535     -4.4663839      125886.69      145.44609      28.045623      28.045623     -0.44213281     0.012413114    0.016402036    0.036764446   -0.040617825   -0.044399693    78139.627      78.217845    
  39964000   39964          1.0041971     -0.12895886     16.640647      1.5062809      21.105703      18.146928     -4.4650561      125241.08      145.45579      28.048404      28.048404     -0.35582679    -0.0069568819  -0.024092895   -0.017879248   -0.047662741    0.02939947     78147.99       70.396548    
  39968000   39968          1.0009056     -0.20503211     16.652965      1.5013437      21.110731      18.154309     -4.4577655      124494.6       145.46549      28.055672      28.055672     -0.4400434     -0.10863927    -0.066413669    0.0010829877   0.0070664361   0.023467471    78156.424      62.575199    
  39972000   39972          1.002224      -0.13777665     16.64055       1.5033214      21.106758      18.143871     -4.4662086      125573.75      145.4752       28.040419      28.040419     -0.44532222     0.0013882084   0.030604048    0.031717886   -0.015549905    0.0030739276   78164.977      54.753812    
  39976000   39976          1.0016408     -0.043387575    16.638167      1.5024466      21.108726      18.140613     -4.4705595      125917.3       145.4849       28.029428      28.029428     -0.30749092     0.10167009     0.075658107    0.0084527043   0.019033505   -0.0068729788   78173.469      46.932241    
  39980000   39980          1.0006869     -0.098705855    16.64193       1.5010157      21.106913      18.142946     -4.4649823      125687.75      145.4946       28.033267      28.033267     -0.32613118     0.014324001    0.015689614    0.029091407   -0.015249062   -0.022455908    78181.931      39.110521    
  39984000   39984          1.0020257     -0.15307393     16.649815      1.5030239      21.107236      18.152839     -4.4574209      124683.56      145.50431      28.060271      28.060271     -0.39979295    -0.066124102    0.0066952556  -0.0012061809   0.012833206   -0.036631149    78190.365      31.288662    
  39988000   39988          0.99632483    -0.13337581     16.647151      1.4944727      21.107105      18.141623     -4.4599543      125842.91      145.51401      28.051483      28.051483     -0.3779026     -0.0074166558  -0.014808158   -0.016661271   -0.018288087    0.00051750371  78198.748      23.466664    
  39992000   39992          1.0016031     -0.15875564     16.638856      1.50239        21.108253      18.141246     -4.4693964      125891.47      145.52371      28.039006      28.039006     -0.35685052    -0.055421187   -0.063995218    0.02605687     0.0025563482  -0.0066184889   78206.956      15.64452     
  39996000   39996          0.99749707    -0.15670588     16.648188      1.496231       21.11021       18.144419     -4.4620213      125575.9       145.53341      28.054446      28.054446     -0.42147534    -0.061584508    0.012942215    0.013169539   -0.00044454975 -0.017076205    78215.445      7.8223268    
  40000000   40000          0.99630788    -0.097785316    16.650223      1.4944472      21.108146      18.14467      -4.4579226      125559.9       145.54312      28.047561      28.047561     -0.34477735     0.014977881    0.036443523   -0.012616065    0.018283504   -0.0086655467   78223.818      0            
Loop time of 78223.8 on 18 procs for 40000000 steps with 102500 atoms

Performance: 44180.917 tau/day, 511.353 timesteps/s
92.7% CPU use with 18 MPI tasks x 1 OpenMP threads

MPI task timing breakdown:
Section |  min time  |  avg time  |  max time  |%varavg| %total
---------------------------------------------------------------
Pair    | 10099      | 10403      | 10995      | 228.8 | 13.30
Bond    | 11427      | 11778      | 12459      | 189.3 | 15.06
Neigh   | 250.98     | 263.48     | 277.73     |  46.0 |  0.34
Comm    | 14096      | 14955      | 15321      | 231.4 | 19.12
Output  | 916.94     | 916.98     | 917        |   0.0 |  1.17
Modify  | 37465      | 37932      | 38387      | 123.8 | 48.49
Other   |            | 1976       |            |       |  2.53

Nlocal:        5694.44 ave        5737 max        5648 min
Histogram: 2 0 0 3 2 4 2 4 0 1
Nghost:        9977.11 ave       10070 max        9930 min
Histogram: 4 2 2 2 5 1 1 0 0 1
Neighs:              0 ave           0 max           0 min
Histogram: 18 0 0 0 0 0 0 0 0 0

Total # of neighbors = 0
Ave neighs/atom = 0
Ave special neighs/atom = 6.6256976
Neighbor list builds = 1331883
Dangerous builds = 0

# GENERATION RESTART
write_restart ./out.deform.restart
System init for write_restart ...
Generated 0 of 36 mixed pair_coeff terms from geometric mixing rule
write_data    ./out.deform.data pair ij
System init for write_data ...
Generated 0 of 36 mixed pair_coeff terms from geometric mixing rule
Total wall time: 21:43:46
