LAMMPS (15 Sep 2022)
OMP_NUM_THREADS environment is not set. Defaulting to 1 thread. (src/comm.cpp:98)
  using 1 OpenMP thread(s) per MPI task
package gpu 0 binsize 12.0
# LAMMPS Script for deform
# Generated 12/17/2022

# INIT PARAMS & READ CONF
include   "/work_bgfs/h/harshad/simulation_9/neat_polymer/config_4/system.init"
# UNITS
units		lj
dimension	3
atom_style	bond

# INPUT FILE
pair_style	lj/cut 2.5
bond_style	fene
read_data /work_bgfs/h/harshad/simulation_9/neat_polymer/config_4/quiescent/thermal_replicates/4.npt.data
Reading data file ...
  orthogonal box = (-24.256734 -24.256734 -24.256734) to (24.256734 24.256734 24.256734)
  2 by 3 by 3 MPI processor grid
  reading atoms ...
  102500 atoms
  reading velocities ...
  102500 velocities
  scanning bonds ...
  2 = max bonds/atom
  reading bonds ...
  104500 bonds
Finding 1-2 1-3 1-4 neighbors ...
  special bond factors lj:    0        0        0       
  special bond factors coul:  0        0        0       
     4 = max # of 1-2 neighbors
     4 = max # of 1-3 neighbors
     8 = max # of 1-4 neighbors
    12 = max # of special neighbors
  special bonds CPU = 0.005 seconds
  read_data CPU = 1.519 seconds
include   "/work_bgfs/h/harshad/simulation_9/neat_polymer/config_4/system.settings"
# ATOM TYPE
mass  1  1.0 #backbone
mass  2  1.0 #endmer
mass  3  1.0 #crosslinker
mass  4  1.0 #outer shell
mass  5  1.0 #inner shell 2
mass  6  1.0 #inner-most shell
mass  7  1.0 #center bead
mass  8  1.0 #endmer post crosslinking
mass  9  1.0 #crosslinker post crosslinking

# BOND
bond_coeff * 30.0 1.50 1.0 1.0
special_bonds lj 0.0 1.0 1.0
Finding 1-2 1-3 1-4 neighbors ...
  special bond factors lj:    0        1        1       
  special bond factors coul:  0        0        0       
     4 = max # of 1-2 neighbors
     4 = max # of 1-3 neighbors
     8 = max # of 1-4 neighbors
    12 = max # of special neighbors
  special bonds CPU = 0.003 seconds

# PAIR
pair_coeff  1*9 1*9 1.0 1.0 2.5

pair_modify  shift yes
neigh_modify delay 1 check yes

# MAKE GROUPS
group polymer type 1 2 3 8 9
102500 atoms in group polymer
#group ins     type 1
#group strand  type 1 2 8
#group ends    type 2 8
#group xlinks  type 3 9
#group filler  type 4 5 6 7

# INPUTS FROM SBATCH
variable Temp          equal 1.0
variable gamma_total   equal 2.0
variable gamma_rate    equal 0.00005
variable dt            equal 0.001
variable Nfreq         equal 4000
variable Nrepeat_2     equal 100
variable Nevery_1      equal 1
variable Nrepeat_1     equal 1

variable Run           equal ${gamma_total}/${gamma_rate}/${dt}
variable Run           equal 2/${gamma_rate}/${dt}
variable Run           equal 2/5e-05/${dt}
variable Run           equal 2/5e-05/0.001

# RUN OPTIONS
run_style verlet
timestep  ${dt}
timestep  0.001

# RESTART
restart  ${Nfreq} cycle.1.restart cycle.2.restart
restart  4000 cycle.1.restart cycle.2.restart

## SAVE RESTARTS EVERY 10% EXTENSION
#variable RestFreq      equal 0.1/${gamma_rate}/${dt}
#restart  ${RestFreq} deform.*.restart
#
# COMPUTE ke/atom, pe/atom, pxx/atom, position and time-avg
compute     ke_atm          all     ke/atom
compute     p_atm           all     stress/atom NULL
compute     pe_atm          all     pe/atom
compute     ebond_atm       all     pe/atom bond
compute     posit_atm       all     property/atom x y z
fix         avg_ke_atm_1    all     ave/atom ${Nevery_1} ${Nrepeat_1} ${Nfreq} c_ke_atm
fix         avg_ke_atm_1    all     ave/atom 1 ${Nrepeat_1} ${Nfreq} c_ke_atm
fix         avg_ke_atm_1    all     ave/atom 1 1 ${Nfreq} c_ke_atm
fix         avg_ke_atm_1    all     ave/atom 1 1 4000 c_ke_atm
fix         avg_pxx_atm_1   all     ave/atom ${Nevery_1} ${Nrepeat_1} ${Nfreq} c_p_atm[*]
fix         avg_pxx_atm_1   all     ave/atom 1 ${Nrepeat_1} ${Nfreq} c_p_atm[*]
fix         avg_pxx_atm_1   all     ave/atom 1 1 ${Nfreq} c_p_atm[*]
fix         avg_pxx_atm_1   all     ave/atom 1 1 4000 c_p_atm[*]
fix         avg_pe_atm_1    all     ave/atom ${Nevery_1} ${Nrepeat_1} ${Nfreq} c_pe_atm
fix         avg_pe_atm_1    all     ave/atom 1 ${Nrepeat_1} ${Nfreq} c_pe_atm
fix         avg_pe_atm_1    all     ave/atom 1 1 ${Nfreq} c_pe_atm
fix         avg_pe_atm_1    all     ave/atom 1 1 4000 c_pe_atm
#fix         avg_posit_atm_1 all     ave/atom ${Nevery_1} ${Nrepeat_1} ${Nfreq} c_posit_atm[1] c_posit_atm[2] c_posit_atm[3]
dump        dump_1 all custom ${Nfreq} ${out_dir}traj.${Nevery_1}_${Nrepeat_1}_${Nfreq}.xyz mol type x y z f_avg_ke_atm_1 f_avg_pe_atm_1 f_avg_pxx_atm_1[*]
dump        dump_1 all custom 4000 ${out_dir}traj.${Nevery_1}_${Nrepeat_1}_${Nfreq}.xyz mol type x y z f_avg_ke_atm_1 f_avg_pe_atm_1 f_avg_pxx_atm_1[*]
dump        dump_1 all custom 4000 /shares_bgfs/dssimmons_data/harshad/deform/neat_polymer/config_4/4_deform/work_bgfs--h--harshad--simulation_9--neat_polymer--config_4--4_deform--traj.${Nevery_1}_${Nrepeat_1}_${Nfreq}.xyz mol type x y z f_avg_ke_atm_1 f_avg_pe_atm_1 f_avg_pxx_atm_1[*]
dump        dump_1 all custom 4000 /shares_bgfs/dssimmons_data/harshad/deform/neat_polymer/config_4/4_deform/work_bgfs--h--harshad--simulation_9--neat_polymer--config_4--4_deform--traj.1_${Nrepeat_1}_${Nfreq}.xyz mol type x y z f_avg_ke_atm_1 f_avg_pe_atm_1 f_avg_pxx_atm_1[*]
dump        dump_1 all custom 4000 /shares_bgfs/dssimmons_data/harshad/deform/neat_polymer/config_4/4_deform/work_bgfs--h--harshad--simulation_9--neat_polymer--config_4--4_deform--traj.1_1_${Nfreq}.xyz mol type x y z f_avg_ke_atm_1 f_avg_pe_atm_1 f_avg_pxx_atm_1[*]
dump        dump_1 all custom 4000 /shares_bgfs/dssimmons_data/harshad/deform/neat_polymer/config_4/4_deform/work_bgfs--h--harshad--simulation_9--neat_polymer--config_4--4_deform--traj.1_1_4000.xyz mol type x y z f_avg_ke_atm_1 f_avg_pe_atm_1 f_avg_pxx_atm_1[*]
dump_modify dump_1 append yes sort id

# COMPUTE a separate pe and ke for each group, AVG & SAVE
compute   pe_polymer    all reduce  sum c_pe_atm
compute   ke_polymer    all reduce  sum c_ke_atm
compute   ebond_polymer all reduce  sum c_ebond_atm
compute   pxx_polymer   all reduce  sum c_p_atm[1] c_p_atm[2] c_p_atm[3]
compute   pxy_polymer   all reduce  sum c_p_atm[4] c_p_atm[5] c_p_atm[6]
fix 		  avgEnergy     all     ave/time ${Nevery_1} ${Nrepeat_2} ${Nfreq} c_pe_polymer c_ke_polymer c_ebond_polymer c_pxy_polymer[1] c_pxy_polymer[2] c_pxy_polymer[3] file energy.avg.csv
fix 		  avgEnergy     all     ave/time 1 ${Nrepeat_2} ${Nfreq} c_pe_polymer c_ke_polymer c_ebond_polymer c_pxy_polymer[1] c_pxy_polymer[2] c_pxy_polymer[3] file energy.avg.csv
fix 		  avgEnergy     all     ave/time 1 100 ${Nfreq} c_pe_polymer c_ke_polymer c_ebond_polymer c_pxy_polymer[1] c_pxy_polymer[2] c_pxy_polymer[3] file energy.avg.csv
fix 		  avgEnergy     all     ave/time 1 100 4000 c_pe_polymer c_ke_polymer c_ebond_polymer c_pxy_polymer[1] c_pxy_polymer[2] c_pxy_polymer[3] file energy.avg.csv
fix       avgPxx_all    all     ave/time ${Nevery_1} ${Nfreq} ${Nfreq}     c_pxx_polymer[1] c_pxx_polymer[2] c_pxx_polymer[3]                                           file pxx.all.avg.csv
fix       avgPxx_all    all     ave/time 1 ${Nfreq} ${Nfreq}     c_pxx_polymer[1] c_pxx_polymer[2] c_pxx_polymer[3]                                           file pxx.all.avg.csv
fix       avgPxx_all    all     ave/time 1 4000 ${Nfreq}     c_pxx_polymer[1] c_pxx_polymer[2] c_pxx_polymer[3]                                           file pxx.all.avg.csv
fix       avgPxx_all    all     ave/time 1 4000 4000     c_pxx_polymer[1] c_pxx_polymer[2] c_pxx_polymer[3]                                           file pxx.all.avg.csv

# TIME-AVG Ly
variable Ly equal ly
fix       avgLy         all     ave/time ${Nevery_1} ${Nfreq} ${Nfreq}     v_Ly  file Ly.avg.csv
fix       avgLy         all     ave/time 1 ${Nfreq} ${Nfreq}     v_Ly  file Ly.avg.csv
fix       avgLy         all     ave/time 1 4000 ${Nfreq}     v_Ly  file Ly.avg.csv
fix       avgLy         all     ave/time 1 4000 4000     v_Ly  file Ly.avg.csv

# SIMULATION FIXES
fix  npt        all npt temp ${Temp} ${Temp} 2.0 y 0 0 5 z 0 0 5 couple yz
fix  npt        all npt temp 1 ${Temp} 2.0 y 0 0 5 z 0 0 5 couple yz
fix  npt        all npt temp 1 1 2.0 y 0 0 5 z 0 0 5 couple yz
fix  mom        all momentum 10000 linear 1 1 1
fix  deform     all deform 1 x erate ${gamma_rate} remap x units box
fix  deform     all deform 1 x erate 5e-05 remap x units box

# THERMO
variable  thermo_frq equal ${Nfreq}
variable  thermo_frq equal 4000
thermo    ${thermo_frq}
thermo    4000
thermo_style  custom step time temp press pe ke ebond etotal epair ecouple lx ly lz pxx pyy pzz pxy pxz pyz cpu cpuremain

# deform
run ${Run}
run 40000000

CITE-CITE-CITE-CITE-CITE-CITE-CITE-CITE-CITE-CITE-CITE-CITE-CITE

Your simulation uses code contributions which should be cited:

- GPU package (short-range, long-range and three-body potentials): doi:10.1016/j.cpc.2010.12.021, doi:10.1016/j.cpc.2011.10.012, doi:10.1016/j.cpc.2013.08.002, doi:10.1016/j.commatsci.2014.10.068, doi:10.1016/j.cpc.2016.10.020, doi:10.3233/APC200086

@Article{Brown11,
 author = {W. M. Brown and P. Wang and S. J. Plimpton and A. N. Tharrington},
 title = {Implementing Molecular Dynamics on Hybrid High Performance Computers---Short Range Forces},
 journal = {Comput.\ Phys.\ Commun.},
 year =    2011,
 volume =  182,
 pages =   {898--911},
 doi =     {10.1016/j.cpc.2010.12.021}
}

@Article{Brown12,
 author = {W. M. Brown and A. Kohlmeyer and S. J. Plimpton and A. N. Tharrington},
 title = {Implementing Molecular Dynamics on Hybrid High Performance Computers - Particle-Particle Particle-Mesh},
 journal = {Comput.\ Phys.\ Commun.},
 year =    2012,
 volume =  183,
 doi =     {10.1016/j.cpc.2011.10.012},
 pages =   {449--459}
}

@Article{Brown13,
 author = {W. M. Brown and Y. Masako},
 title = {Implementing Molecular Dynamics on Hybrid High Performance Computers---Three-Body Potentials},
 journal = {Comput.\ Phys.\ Commun.},
 year =    2013,
 volume =  184,
 pages =   {2785--2793},
 doi =     {10.1016/j.cpc.2013.08.002},
}

@Article{Trung15,
 author = {T. D. Nguyen and S. J. Plimpton},
 title = {Accelerating Dissipative Particle Dynamics Simulations for Soft Matter Systems},
 journal = {Comput.\ Mater.\ Sci.},
 year =    2015,
 doi =     {10.1016/j.commatsci.2014.10.068},
 volume =  100,
 pages =   {173--180}
}

@Article{Trung17,
 author = {T. D. Nguyen},
 title = {{GPU}-Accelerated {T}ersoff Potentials for Massively Parallel
    Molecular Dynamics Simulations},
 journal = {Comput.\ Phys.\ Commun.},
 year =    2017,
 doi =     {10.1016/j.cpc.2016.10.020},
 volume =  212,
 pages =   {113--122}
}

@inproceedings{Nikolskiy19,
 author = {V. Nikolskiy and V. Stegailov},
 title = {{GPU} Acceleration of Four-Site Water Models in {LAMMPS}},
 booktitle = {Proceedings of the International Conference on Parallel
    Computing (ParCo 2019), Prague, Czech Republic},
 doi =     {10.3233/APC200086},
 year =    2019
}

CITE-CITE-CITE-CITE-CITE-CITE-CITE-CITE-CITE-CITE-CITE-CITE-CITE

Generated 0 of 36 mixed pair_coeff terms from geometric mixing rule
WARNING: Inconsistent image flags (src/domain.cpp:819)
Per MPI rank memory allocation (min/avg/max) = 11.63 | 11.63 | 11.64 Mbytes
   Step          Time           Temp          Press          PotEng         KinEng         E_bond         TotEng         E_pair        Ecouple           Lx             Ly             Lz            Pxx            Pyy            Pzz            Pxy            Pxz            Pyz            CPU          CPULeft    
         0   0              0.99789162    -0.064305408    16.633202      1.4968228      21.104566      18.130025     -4.4713635      0              48.513469      48.513469      48.513469     -0.07983294    -0.061749633   -0.05133365     0.019242946    0.058872763    0.0087769588   0              0            
      4000   4              0.99750664    -9.3220453e-05  16.642546      1.4962454      21.109672      18.138791     -4.4671257     -878.08766      48.523172      48.526104      48.526104      0.023742966   -0.045005741    0.020983114   -0.024912811   -0.0079789017   0.0050772866   9.9358157      99348.232    
      8000   8              1.0024489     -0.049198349    16.643363      1.5036586      21.107029      18.147022     -4.4636659     -1701.0585      48.532874      48.54079       48.54079      -0.068199409   -0.093921009    0.014525372    0.024669567   -0.036602115    0.04410268     18.533562      92649.284    
     12000   12             0.99929587    -0.095236856    16.638119      1.4989292      21.10828       18.137048     -4.470161      -658.33834      48.542577      48.524271      48.524271     -0.067783086   -0.099829235   -0.11809825    -0.020369256   -0.010125788    0.0038919013   27.085237      90257.043    
     16000   16             1.0007891      0.024797068    16.632155      1.5011691      21.108678      18.133324     -4.4765226     -255.9457       48.55228       48.478611      48.478611      0.0087118634   0.044142153    0.021537189   -0.021644513    0.032913152   -0.019586929    35.927836      89783.665    
     20000   20             0.99652674    -0.0040698409   16.627039      1.4947755      21.103952      18.121815     -4.4769124      944.06907      48.561982      48.458665      48.458665     -0.055867126    0.032611399    0.011046205   -0.00071211591  7.9788227e-06  0.027920046    44.602048      89159.497    
     24000   24             1.0002769     -0.032647927    16.632914      1.5004007      21.108235      18.133315     -4.475321      -214.0081       48.571685      48.486761      48.486761     -0.0021348592   0.00082547647 -0.096634399   -0.0130376     -0.029018535    0.0076893995   53.371988      88899.943    
     28000   28             1.0030712     -0.077255384    16.633892      1.5045922      21.105319      18.138484     -4.4714274     -723.19041      48.581388      48.494341      48.494341     -0.081818502   -0.1250566     -0.02489105    -0.065728774    0.029700255   -0.003091774    62.059366      88594.179    
     32000   32             0.99485281    -0.057750053    16.634006      1.4922647      21.103924      18.126271     -4.4699182      549.53968      48.59109       48.486769      48.486769     -0.082859256   -0.019441508   -0.070949395   -0.017536912   -0.021866907    0.031572756    70.785748      88411.401    
     36000   36             1.0007511      0.010954835    16.635173      1.5011119      21.106613      18.136285     -4.4714394     -456.77333      48.600793      48.480814      48.480814      0.018672831    0.012501691    0.0016899818  -0.015069789    0.034882292    0.018501665    79.623137      88390.531    
     40000   40             1.0000169      0.042193461    16.641876      1.5000107      21.109293      18.141887     -4.4674174     -1010.0535      48.610496      48.473503      48.473503      0.046828357    0.036014322    0.043737704   -0.014045051    0.014738023   -0.0084744125   88.217991      88129.775    
     44000   44             0.99896544     0.026865898    16.63286       1.4984335      21.104412      18.131293     -4.4715521      96.298408      48.620199      48.45217       48.45217       0.057234387   -0.022157443    0.045520749    0.0054760253  -0.032995176    0.00035475939  97.018135      88101.287    
     48000   48             0.99618245    -0.030937034    16.638117      1.4942591      21.108381      18.132376     -4.4702646      6.2206262      48.629901      48.458428      48.458428     -0.010880402   -0.035662512   -0.046268189   -0.035438414    0.011368688    0.038657532    105.68328      87963.714    
     52000   52             1.001685      -0.015458839    16.643842      1.5025128      21.104065      18.146354     -4.460224      -1405.9998      48.639604      48.501348      48.501348      0.0094185063  -0.0087564586  -0.047038564   -0.0088332459  -0.041541459    0.0224283      114.45146      87925.134    
     56000   56             0.99825599    -0.048452593    16.639167      1.4973694      21.107766      18.136537     -4.4685989     -379.12052      48.649307      48.46604       48.46604      -0.06696488    -0.0089561485  -0.069436751   -0.0086995909  -0.0079090647   0.018425014    123.03823      87761.413    
     60000   60             0.99348446    -0.022857128    16.639112      1.4902122      21.105909      18.129324     -4.4667967      380.39476      48.659009      48.467686      48.467686      0.011907549   -0.062886786   -0.017592149    0.018598858   -0.012241873   -0.026909488    131.67459      87651.387    
     64000   64             0.99834707    -0.0082941013   16.642591      1.497506       21.110744      18.140097     -4.4681529     -703.43631      48.668712      48.45465       48.45465      -0.031566141    0.014997199   -0.008313362   -0.048938504   -0.011789438    0.029983489    140.11749      87433.316    
     68000   68             1.0051486      0.041983819    16.644912      1.5077082      21.107924      18.15262      -4.4630124     -1966.667       48.678415      48.447864      48.447864      0.085367325    0.04183267    -0.0012485385   0.0095234823   0.0029194575  -0.0070549366   149.30748      87678.623    
     72000   72             1.0013256      0.013063798    16.637776      1.5019737      21.113194      18.13975      -4.4754176     -627.09488      48.688117      48.395056      48.395056      0.054462967   -0.046154145    0.030882572    0.025427431   -0.00089953848 -0.0049738561   158.31032      87791.869    
     76000   76             1.001522       0.059188688    16.630188      1.5022683      21.106655      18.132456     -4.4764673      140.79806      48.69782       48.387099      48.387099      0.0942674      0.080682425    0.0026162397  -0.046516568   -0.023938997   -0.0025808327   166.8988       87674.578    
     80000   80             0.99920701     0.018637258    16.636534      1.4987959      21.109895      18.13533      -4.4733604     -132.84478      48.707523      48.418235      48.418235     -0.017261374    0.026045854    0.047127294   -0.017815671    0.052190633    0.027801472    175.66758      87658.124    
     84000   84             1.0040515      0.046631294    16.635566      1.5060625      21.109829      18.141629     -4.4742624     -758.19425      48.717226      48.405823      48.405823      0.01166543     0.063882063    0.064346389   -0.0036241426   0.035189899    0.043679896    184.14166      87502.362    
     88000   88             1.0018552      0.026845867    16.634021      1.5027681      21.109593      18.136789     -4.4755722     -241.62049      48.726928      48.379238      48.379238      0.029029448    0.040987399    0.010520753   -0.022298135   -0.071078145    0.023740065    192.71046      87402.955    
     92000   92             0.99663319     0.0050154041   16.624702      1.4949352      21.106246      18.119637     -4.4815436      1536.6131      48.736631      48.358316      48.358316      0.019106041    0.024550848   -0.028610676   -0.031660643   -0.035294907    0.041207147    201.39773      87362.834    
     96000   96             0.9979464      0.057450073    16.629668      1.496905       21.106589      18.126573     -4.4769208      845.99747      48.746334      48.380404      48.380404      0.060649257    0.060044231    0.051656731    0.01494836    -0.01678146    -0.053624228    210.14288      87349.39     
    100000   100            1.0011645      0.036220803    16.636759      1.5017321      21.103421      18.138492     -4.4666611     -354.77739      48.756036      48.412537      48.412537     -0.019046851    0.073617648    0.054091613   -0.0018621785  -0.0089654787   0.030776181    218.89589      87339.46     
    104000   104            1.0011357     -0.011514538    16.636521      1.5016889      21.102814      18.13821      -4.4662927     -305.65342      48.765739      48.409325      48.409325     -0.02342638    -0.025924688    0.014807452   -0.014462032   -0.0032606807  -0.015529959    227.72625      87359.292    
    108000   108            0.99665644     0.0095009726   16.627329      1.4949701      21.104977      18.122299     -4.4776485      1345.5085      48.775442      48.356285      48.356285     -0.046024899   -0.021580211    0.096108028   -0.020407445   -0.0031814434   0.0063595406   236.34038      87297.134    
    112000   112            1.002485      -0.0023047629   16.631471      1.5037128      21.102066      18.135184     -4.470595       45.260211      48.785144      48.384088      48.384088     -0.020340912    0.021158231   -0.0077316073   0.0042167967   0.038865762    0.035105273    244.9481       87236.515    
    116000   116            1.0041963      0.014382505    16.635123      1.5062797      21.106274      18.141403     -4.4711513     -571.15828      48.794847      48.377434      48.377434     -0.024864231   -0.0080223145   0.07603406    -0.028116138    0.020946076    0.0034181726   253.46032      87146.651    
    120000   120            1.0019096      0.0096695905   16.634443      1.5028497      21.108981      18.137293     -4.4745382     -129.17133      48.80455       48.363636      48.363636      0.015302318   -0.00067331843  0.014379772    0.014795016    0.012261361   -0.033137328    262.07231      87095.364    
    124000   124            1.0026319      0.072172773    16.626697      1.5039332      21.103114      18.130631     -4.4764162      573.85129      48.814252      48.341902      48.341902      0.086950932    0.049095108    0.080472279   -0.00070781865  0.0166184      0.043735855    271.00055      87148.531    
    128000   128            1.0056132     -0.027689957    16.633619      1.508405       21.105263      18.142024     -4.4716443     -572.87145      48.823955      48.377648      48.377648     -0.0053395686  -0.032281855   -0.045448448    0.034141217    0.052902017    0.014296298    279.74237      87139.748    
    132000   132            1.0019107     -0.024620938    16.639088      1.5028514      21.107749      18.14194      -4.4686602     -543.69291      48.833658      48.362259      48.362259     -0.021779531   -0.078041873    0.025958592    0.019639519   -0.0043872979  -0.010498102    288.61557      87170.648    
    136000   136            1.0012432     -0.011842318    16.629936      1.5018501      21.104068      18.131786     -4.4741322      516.94468      48.843361      48.33329       48.33329      -0.034187822   -0.001546964    0.00020783063 -0.0088627084   0.024641357   -0.04610872     297.72177      87267.506    
    140000   140            0.9985701     -0.018999099    16.640534      1.4978405      21.107985      18.138375     -4.4674511     -137.66358      48.853063      48.339003      48.339003      0.0055369725  -0.033666995   -0.028867276   -0.012988696   -0.002136781   -0.010561372    306.38297      87231.609    
    144000   144            1.0050716      0.030260158    16.644537      1.5075927      21.113677      18.15213      -4.4691397     -1526.741       48.862766      48.343526      48.343526      0.031239678    0.030261664    0.029279132    0.027862932    0.058168478   -0.011611778    315.09128      87210.265    
    148000   148            1.0040477      0.0046622017   16.637736      1.5060569      21.108868      18.143793     -4.4711318     -652.32369      48.872469      48.342091      48.342091     -0.022647122    0.0093678733   0.027265854    0.025123319    0.0020181783  -0.047575295    323.96793      87234.934    
    152000   152            0.99731662     0.022235606    16.638346      1.4959603      21.106281      18.134307     -4.4679353      340.62925      48.882171      48.336282      48.336282      0.022988532   -0.043262488    0.086980775   -0.043843607    0.01672626    -0.0073530523   332.57731      87187.767    
    156000   156            0.99621666    -0.088151093    16.633153      1.4943104      21.105194      18.127464     -4.4720404      1062.386       48.891874      48.331471      48.331471     -0.11582186    -0.082969226   -0.065662195   -0.00089510308 -0.0018317067   0.010995245    341.29324      87169.794    
    160000   160            0.99994556     0.033862508    16.643227      1.4999037      21.1096        18.143131     -4.4663728     -522.80644      48.901577      48.35322       48.35322       0.0021972487   0.068416029    0.030974245   -0.003397882    0.056551005   -0.022881211    350.00951      87152.369    
    164000   164            1.0021145     -0.022781565    16.637463      1.5031571      21.103133      18.14062      -4.4656701     -245.24698      48.911279      48.342942      48.342942      0.036180634   -0.057816387   -0.046708943   -0.01108731     0.036213911   -0.075846278    359.09524      87225.109    
    168000   168            1.0016753     -0.0048434512   16.635326      1.5024983      21.106797      18.137824     -4.4714715      61.904223      48.920982      48.313851      48.313851     -0.013876755   -0.03144892     0.030795322   -0.0085775153  -0.052040597   -0.0086155428   367.84645      87214.642    
    172000   172            0.99902757    -0.013584161    16.625797      1.4985267      21.104524      18.124324     -4.4787272      1465.9751      48.930685      48.280184      48.280184     -0.036633042   -0.020855071    0.016735629   -0.028411864   -0.021522143    0.046940698    376.41922      87162.934    
    176000   176            1.0046905      0.051355754    16.62577       1.5070211      21.105357      18.132791     -4.4795866      618.5907       48.940387      48.265312      48.265312      0.0081554018   0.10442307     0.041488795    0.005691195    0.016808384   -0.028307041    385.36802      87198.272    
    180000   180            1.0039307      0.023092596    16.635156      1.5058814      21.108909      18.141037     -4.473753      -205.698        48.95009       48.281347      48.281347     -0.041101423    0.047934335    0.062444874   -0.015347735   -0.033323488    0.033279375    394.35168      87239.355    
    184000   184            0.99895639    -0.036205128    16.635465      1.49842        21.106386      18.133885     -4.470921       547.63224      48.959793      48.295845      48.295845     -0.067769487   -0.042962281    0.002116383    0.0085247198  -0.022409524    0.0068842154   403.11983      87231.627    
    188000   188            0.99785331    -0.087588952    16.635857      1.4967654      21.10782       18.132622     -4.4719634      697.60448      48.969496      48.301365      48.301365     -0.11163904    -0.087007714   -0.064120103   -0.00094434708  0.0040129966   0.0058047985   411.79643      87204.466    
    192000   192            0.99877745    -0.016360319    16.639557      1.4981516      21.106598      18.137709     -4.4670411      196.4975       48.979198      48.302926      48.302926     -0.043325061   -0.048025498    0.042269601   -0.0016535873   0.002287656   -0.0046545263   420.67447      87219.841    
    196000   196            1.0060345      0.0047051811   16.637807      1.5090371      21.108377      18.146844     -4.4705701     -719.36888      48.988901      48.278965      48.278965     -0.035263247    0.030863388    0.018515402   -0.024078835    0.017205263   -0.018239409    429.28267      87179.427    
    200000   200            1.0033237      0.01697266     16.630379      1.5049709      21.102367      18.135349     -4.471988       479.21183      48.998604      48.274051      48.274051      0.0074665695  -0.0064519534   0.049903363    0.022616498    0.016532788    0.012140492    437.91886      87145.853    
    204000   204            0.99845422    -0.048096155    16.637276      1.4976667      21.110837      18.134942     -4.4735613      541.83009      49.008306      48.27465       48.27465      -0.061422361   -0.077723075   -0.0051430272  -0.0080909935  -0.039168491   -0.029443289    446.80348      87161.723    
    208000   208            1.0039364      0.098989055    16.644553      1.5058899      21.107737      18.150443     -4.4631838     -1026.7574      49.018009      48.287587      48.287587      0.12110382     0.058250266    0.11761308    -0.040569808    0.059939949   -0.004372131    455.38768      87119.166    
    212000   212            1.0010077     -0.0065778114   16.64257       1.5014969      21.107268      18.144067     -4.4646981     -352.57527      49.027712      48.291941      48.291941     -0.00690776     0.032265011   -0.045090685    0.0058731826  -0.034781466    0.010753114    464.09412      87100.835    
    216000   216            0.99935199    -0.024288543    16.635541      1.4990134      21.107681      18.134554     -4.4721407      642.82078      49.037414      48.269222      48.269222      0.014424946   -0.11033206     0.023041485    0.020063389   -0.0030173985   0.035492162    472.97416      87114.833    
    220000   220            1.0009223     -0.0097032995   16.634511      1.5013688      21.106385      18.13588      -4.4718738      527.10284      49.047117      48.272947      48.272947      0.0061496988  -0.027439956   -0.0078196414   0.013637439   -0.020974211   -0.0084615613   481.6337       87088.131    
    224000   224            0.99945823     0.0085346605   16.646485      1.4991727      21.109152      18.145657     -4.4626668     -454.60549      49.05682       48.273641      48.273641     -0.030614172    0.002243671    0.053974483   -0.01021745     0.030534525   -0.043317537    490.15142      87036.889    
    228000   228            1.0021922      0.034953886    16.629587      1.5032736      21.104027      18.13286      -4.4744404      877.20709      49.066522      48.23862       48.23862       0.012561466    0.040955305    0.051344888   -0.048847855    0.011252543    0.015438362    498.8619       87020.77     
    232000   232            0.99764192     0.022731517    16.634516      1.4964483      21.107529      18.130964     -4.4730126      1091.9226      49.076225      48.232131      48.232131      0.0034666416   0.025878046    0.038849863   -0.0072530327  -0.019888072    0.025721146    507.78309      87041.026    
    236000   236            1.0047759     -0.0040244183   16.636884      1.5071492      21.109878      18.144033     -4.4729936     -227.15426      49.085928      48.243012      48.243012     -0.020269769   -0.049542983    0.057739497    0.012705693   -0.011076669   -0.010181       516.32274      86996.006    
    240000   240            0.99693025    -0.0053443104   16.646237      1.4953808      21.111565      18.141618     -4.4653281      41.381245      49.095631      48.246778      48.246778     -0.040211207   -0.0034558122   0.027634088    0.019717258   -0.037651888    0.00081226352  525.10725      86992.768    
    244000   244            0.99948649     0.034641566    16.630428      1.4992151      21.103827      18.129643     -4.4733993      1288.621       49.105333      48.214892      48.214892      0.039128143    0.037132276    0.027664278   -0.0082707084   0.0071446093  -0.0067145023   533.908        86991.993    
    248000   248            0.99861826    -0.041775254    16.639551      1.4979128      21.108159      18.137464     -4.4686071      507.78899      49.115036      48.225277      48.225277     -0.02933466    -0.037549218   -0.058441885    0.0024913088  -0.005005266    0.00069632351  542.62732      86977.909    
    252000   252            1.0025807     -0.018199535    16.636813      1.5038564      21.106743      18.140669     -4.4699301      199.79758      49.124739      48.217231      48.217231     -0.08461276    -0.014012406    0.04402656     0.0033387106  -0.0065992866   0.006494058    551.28627      86954.471    
    256000   256            1.0006054      0.011696161    16.63724       1.5008935      21.107406      18.138134     -4.4701661      480.12945      49.134441      48.212015      48.212015      0.025911636   -0.015001218    0.024178065   -0.016745305    0.0055313522  -0.015914336    559.91634      86927.012    
    260000   260            0.99777554    -0.019825556    16.630552      1.4966487      21.10373       18.127201     -4.4731781      1620.9455      49.144144      48.195527      48.195527     -0.045323429    0.06099026    -0.075143498    0.043461486   -0.056547046    0.0029599533   568.50052      86893.118    
    264000   264            0.99869766    -0.044769288    16.629547      1.4980319      21.104587      18.127579     -4.4750398      1602.5918      49.153847      48.191929      48.191929     -0.035919353   -0.056918679   -0.041469833   -0.050562004   -0.023156014    0.022754138    577.17801      86874.036    
    268000   268            0.99781656    -0.048575172    16.645001      1.4967102      21.107661      18.141711     -4.4626605      174.79145      49.163549      48.240916      48.240916     -0.048473415   -0.03146197    -0.065790132    0.0010003082   0.026688316    0.00078275783  585.92952      86866.238    
    272000   272            1.0011751     -0.072809162    16.636644      1.501748       21.10585       18.138392     -4.4692059      535.0017       49.173252      48.216686      48.216686     -0.063158605   -0.11676281    -0.038506074   -0.0021099109  -0.013923719   -0.016670257    594.86631      86885.474    
    276000   276            0.99740395    -0.014919022    16.63529       1.4960913      21.104691      18.131381     -4.4694009      1273.9582      49.182955      48.190352      48.190352     -0.011341656    0.011137315   -0.044552723   -0.018438488    0.025042556    0.012622136    603.5347       86865.263    
    280000   280            0.99769786     0.016272698    16.63999       1.4965322      21.107081      18.136522     -4.4670907      767.3628       49.192658      48.197928      48.197928      0.046727489   -0.0072763346   0.0093669396  -0.025379654    0.034220014   -0.0099449008   612.12148      86833.805    
    284000   284            1.0011065     -0.018726898    16.647893      1.501645       21.111134      18.149538     -4.4632413     -546.05673      49.20236       48.20661       48.20661      -0.0061144124  -0.048412977   -0.0016533048  -0.0096446181   0.016777464   -0.025929696    620.73832      86807.195    
    288000   288            1.0013842      0.044481564    16.642164      1.5020616      21.105867      18.144226     -4.4637024      18.718146      49.212063      48.19823       48.19823       0.014034067    0.071308049    0.048102575    0.020364362   -0.01509376     0.031935272    629.30644      86774.366    
    292000   292            1.0013938     -0.0070947187   16.632901      1.502076       21.106001      18.134977     -4.4730998      986.99515      49.221766      48.164198      48.164198      0.015137347   -0.036889366    0.00046786258  0.0070453303   0.021181716    0.0016277129   637.98396      86757.079    
    296000   296            1.0018954     -0.024096606    16.626023      1.5028284      21.105968      18.128851     -4.4799451      1635.4682      49.231468      48.142371      48.142371     -0.065639433   -0.012922992    0.0062726084  -0.0029992946   0.041695518    0.062920595    646.59013      86730.455    
    300000   300            1.0001081     -0.050406656    16.637955      1.5001475      21.108208      18.138102     -4.4702534      707.76674      49.241171      48.162823      48.162823     -0.035237432   -0.02972869    -0.086253846   -0.024383716   -0.05329996    -0.0050558878   655.62623      86761.205    
    304000   304            0.99902354    -0.045528944    16.642447      1.4985207      21.112115      18.140968     -4.4696677      434.91975      49.250874      48.167895      48.167895     -0.0065487303  -0.017803855   -0.11223425     0.00047522937  0.012622999    0.023768439    664.56976      86778.82     
    308000   308            1.0009622      0.12131354     16.634629      1.5014286      21.101954      18.136058     -4.4673245      958.35797      49.260576      48.137074      48.137074      0.12787391     0.10401455     0.13205216     0.039283465    0.011793329   -0.0074958089   673.28423      86766.226    
    312000   312            1.0018404     -0.0063461227   16.629668      1.5027459      21.103197      18.132414     -4.4735292      1351.944       49.270279      48.116798      48.116798     -0.030035099   -0.013379228    0.024375958    0.017373358    0.0045781999  -0.012787283    682.36423      86800.23     
    316000   316            1.0037827      0.012131857    16.641861      1.5056593      21.109535      18.14752      -4.4676741     -175.95672      49.279982      48.134274      48.134274      0.034129704   -0.0094868846   0.01175275     0.034498495   -0.019267727    0.022032057    691.32291      86817.906    
    320000   320            1.0007402      0.024361621    16.635129      1.5010956      21.108475      18.136224     -4.473346       1002.3981      49.289684      48.110921      48.110921      0.059662557    0.0078534454   0.0055688602  -0.072384765    0.001330505   -0.037073277    700.3593       86844.554    
    324000   324            0.99654715     0.0052628224   16.636701      1.4948061      21.109901      18.131507     -4.4731997      1506.6635      49.299387      48.110182      48.110182      0.025059195   -0.027202281    0.017931553    0.004060843   -0.010577626    0.027900101    708.98243      86819.713    
    328000   328            1.0037978     -0.0054708757   16.637657      1.505682       21.112611      18.143339     -4.4749543      314.23191      49.30909       48.099159      48.099159     -0.049704197    0.012225501    0.021066068    0.00047802053 -0.037331184   -0.0046470558   717.90321      86831.268    
    332000   332            1.0011922      0.079863829    16.63196       1.5017736      21.109827      18.133733     -4.4778671      1319.4047      49.318793      48.088718      48.088718      0.078351676    0.07520051     0.0860393     -0.043066111    0.0018221838   0.0098568072   726.39791      86791.422    
    336000   336            1.001642       0.029478815    16.630184      1.5024483      21.108511      18.132633     -4.4783271      1452.4925      49.328495      48.087006      48.087006      0.013431889    0.026233214    0.048771342   -0.0011761972  -0.013699408   -0.0098483247   734.97935      86762.562    
    340000   340            1.0039944      0.030108463    16.634182      1.5059769      21.109744      18.140158     -4.4755626      701.79264      49.338198      48.08301       48.08301       0.060530592    0.048077658   -0.018282859    0.0031620541  -0.0044344366   0.020584967    743.46174      86722.626    
    344000   344            1.0012723      0.0083677334   16.630756      1.5018938      21.102871      18.132649     -4.4721149      1491.758       49.347901      48.11754       48.11754      -0.010951401    0.057821647   -0.021767046    0.048186591    0.022112666    0.0068371302   751.99877      86689.718    
    348000   348            0.99487914     0.02002435     16.634029      1.4923041      21.107006      18.126333     -4.4729776      2159.5348      49.357603      48.087912      48.087912     -0.0048822617   0.013176861    0.051778452   -0.029402722    0.012357391    0.05234928     760.49522      86652.749    
    352000   352            0.99883079    -0.053418746    16.644081      1.4982316      21.106966      18.142312     -4.4628856      542.06247      49.367306      48.126889      48.126889     -0.059405036   -0.03659039    -0.064260811    0.049179291   -0.013917279    0.048257877    769.08664      86627.122    
    356000   356            0.99608909    -0.032597652    16.645911      1.4941191      21.105642      18.14003      -4.459731       796.2728       49.377009      48.144335      48.144335     -0.035326137   -0.0060513969  -0.056415424    0.044006261    0.044070248    0.025966898    777.88568      86625        
    360000   360            0.99975167    -0.0058253044   16.642387      1.4996129      21.105848      18.142        -4.463461       615.01475      49.386711      48.1041        48.1041       -0.0017526509   0.024839648   -0.04056291    -0.015510083    0.00017155273  0.0032144524   786.37656      86588.797    
    364000   364            0.99880326    -0.018246618    16.637862      1.4981903      21.106183      18.136052     -4.468321       1245.4363      49.396414      48.096599      48.096599     -0.054267335    0.015762923   -0.016235443   -0.022643397   -0.021437518    0.017315902    794.68276      86533.093    
    368000   368            0.99344039     0.013184664    16.637502      1.490146       21.106294      18.127648     -4.4687919      2127.3252      49.406117      48.075655      48.075655      0.039180655    0.011663152   -0.011289815    0.00055893291 -0.053538114    0.0080786932   803.21249      86502.493    
    372000   372            1.0007781     -0.036163251    16.640335      1.5011525      21.10656       18.141488     -4.4662252      728.94389      49.415819      48.097509      48.097509     -0.042740901   -0.012994208   -0.052754643    0.026928666    0.005545499   -0.0047252297   811.57108      86454.137    
    376000   376            0.99960497     0.016223884    16.637981      1.4993928      21.105849      18.137374     -4.4678684      1170.6506      49.425522      48.093646      48.093646      0.026513104   -0.010160248    0.032318794   -0.038221309    0.0050989431  -0.032091697    819.94696      86408.453    
    380000   380            0.99958694    -0.011746113    16.635209      1.4993658      21.107693      18.134574     -4.4724846      1477.9287      49.435225      48.061031      48.061031     -0.046609593    0.037572245   -0.026200992    0.02627336     0.0093285291  -0.048455518    828.65751      86398.449    
    384000   384            1.0044664     -0.043450933    16.640914      1.5066849      21.108921      18.147599     -4.4680069      163.59486      49.444928      48.064566      48.064566     -0.03599291    -0.046087323   -0.048272565   -0.016163451    0.0034874852   0.046525407    837.22981      86374.208    
    388000   388            0.99875087     0.031488267    16.642853      1.4981117      21.109597      18.140965     -4.466744       864.2593       49.45463       48.068323      48.068323      0.026720648    0.0025733907   0.065170761    6.5061014e-05 -0.0034446488   0.044037369    845.67318      86337.13     
    392000   392            1.0034068     -0.028524248    16.632927      1.5050955      21.108015      18.138022     -4.4750889      1185.8919      49.464333      48.031586      48.031586     -0.018299675   -0.024826948   -0.04244612     0.018863137   -0.063059733    0.035280916    854.24962      86314.079    
    396000   396            0.99630419    -0.015764861    16.631551      1.4944417      21.104226      18.125993     -4.4726753      2439.3017      49.474036      48.035601      48.035601     -0.071426792   -0.0048916871   0.029023896   -0.020255125    0.001293725   -0.019475288    862.53645      86262.358    
    400000   400            0.99905952     0.015143414    16.634015      1.4985747      21.109272      18.13259      -4.4752572      1783.6783      49.483738      48.018456      48.018456      0.018018145    0.025522769    0.0018893295   0.015751548   -0.015616663    0.037812081    871.14051      86242.911    
    404000   404            1.0005123     -0.044448831    16.639978      1.5007538      21.105815      18.140731     -4.4658374      969.61829      49.493441      48.05295       48.05295      -0.049499446   -0.013894151   -0.069952895    0.018445817   -0.017053191   -0.03760201     879.9625       86245.038    
    408000   408            0.99652947    -0.049135094    16.643717      1.4947796      21.110305      18.138497     -4.4665879      1219.0809      49.503144      48.055042      48.055042     -0.071883912   -0.040447345   -0.035074024   -0.00011154255  0.0010364156   0.03550221     888.81685      86250.09     
    412000   412            1.0006476      0.012181698    16.625046      1.5009567      21.106587      18.126003     -4.4815411      2519.6374      49.512846      47.998535      47.998535      0.048537917   -0.01079823    -0.0011945911  -0.0013935256  -0.021671285    0.0032933166   897.53043      86241.346    
    416000   416            0.99777216     0.0069289445   16.638931      1.4966436      21.108865      18.135574     -4.4699344      1558.9358      49.522549      48.018221      48.018221      0.0042690629   0.032246928   -0.015729158    0.045246294   -0.0050025775  -0.0099436433   905.92126      86201.893    
    420000   420            0.99940685    -0.011686804    16.642037      1.4990957      21.110585      18.141133     -4.4685478      1009.5635      49.532252      48.018543      48.018543      0.026502957    0.022876706   -0.084440075    0.023104317   -0.028352066   -0.0085937383   914.27195      86159.247    
    424000   424            0.99873324     0.02924283     16.6321        1.4980852      21.105925      18.130185     -4.4738252      2151.737       49.541954      48.011044      48.011044      0.041459031    0.031774881    0.014494579    0.006540509    0.0096438579   0.011357039    922.80674      86134.433    
    428000   428            0.99501128    -0.029091931    16.639724      1.4925024      21.104143      18.132227     -4.4644191      1963.0594      49.551657      48.053176      48.053176     -0.033160325   -0.015437822   -0.038677647   -0.013015933    0.0094096709   0.0032954337   931.39932      86115.266    
    432000   432            1.0012718      0.036307663    16.637832      1.501893       21.104668      18.139725     -4.4668361      1214.5692      49.56136       48.025887      48.025887      0.046130069    0.049953118    0.012839802   -0.021607811   -0.0062165324  -0.014930901    939.94157      86091.685    
    436000   436            0.99901238    -0.0056864613   16.636062      1.4985039      21.106164      18.134566     -4.4701021      1763.5836      49.571063      47.993704      47.993704     -0.011293133   -0.0039664306  -0.0017998202  -0.05871878     0.022746901    0.0034721546   948.3874       86059.631    
    440000   440            0.99954935    -0.021020243    16.629921      1.4993094      21.103828      18.12923      -4.4739075      2330.6912      49.580765      47.978463      47.978463     -0.029627255   -0.075906618    0.042473143    0.02361564    -0.0025356712   0.00014484364  957.01418      86044.275    
    444000   444            0.99910047     0.022986922    16.645495      1.4986361      21.106997      18.144131     -4.461502       824.07948      49.590468      48.009095      48.009095      0.018252751    0.04365551     0.0070525061  -0.0043728198  -0.013069052   -0.012470467    965.42316      86009.637    
    448000   448            0.99654696    -0.0082891894   16.641163      1.4948059      21.108153      18.135969     -4.4669897      1680.978       49.600171      48.001293      48.001293     -0.050779196    0.018677634    0.0072339946   0.008215787    0.018240224    0.030960922    973.83849      85976.026    
    452000   452            0.99890727    -0.012105559    16.631673      1.4983463      21.104373      18.130019     -4.4726996      2310.6047      49.609873      47.984219      47.984219     -0.051626876   -0.016725335    0.032035535    0.014879482   -0.041563785   -0.035199933    982.24307      85941.923    
    456000   456            1.0031356     -0.0023066755   16.636104      1.5046888      21.105751      18.140793     -4.4696463      1226.6552      49.619576      47.981357      47.981357     -0.014448932    0.032894818   -0.025365913   -0.02070069     0.003929083   -0.029285896    990.73352      85915.716    
    460000   460            1.003639      -0.021875925    16.635921      1.5054439      21.107293      18.141365     -4.4713717      1188.1042      49.629279      47.966467      47.966467     -0.057259818    0.013872455   -0.022240412   -0.0014453766   0.00069479039 -0.014211453    999.23939      85891.142    
    464000   464            1.0028061      0.035370011    16.628617      1.5041944      21.104621      18.132811     -4.4760043      2085.0086      49.638981      47.938175      47.938175      0.049217943    0.033633209    0.023258882    0.0036170398  -0.00083074288  0.025737923    1007.9034      85880.319    
    468000   468            1.0043878      0.031113486    16.625517      1.5065669      21.102866      18.132084     -4.4773489      2179.5732      49.648684      47.924226      47.924226     -0.0210224      0.083444963    0.030917896    0.028347361   -0.015287413   -0.019961591    1016.6097      85873.105    
    472000   472            1.0016815      0.010191505    16.640756      1.5025077      21.109052      18.143263     -4.4682962      1054.0698      49.658387      47.941991      47.941991      0.049798893   -0.0087515193  -0.010472857    0.012520907   -0.014659943    0.0039742792   1025.1336      85850.596    
    476000   476            1.0016604     -0.037385432    16.632122      1.5024759      21.106642      18.134598     -4.47452        1962.3009      49.66809       47.936586      47.936586     -0.026934353   -0.038634473   -0.046587471   -0.02133309     0.0039189936   0.0098753913   1033.6044      85823.912    
    480000   480            1.0001088      0.01879608     16.637345      1.5001485      21.110485      18.137494     -4.4731404      1685.9678      49.677792      47.949612      47.949612     -0.032857076    0.079749156    0.0094961592   0.044557811   -0.031201115    0.050526126    1042.0374      85794.416    
    484000   484            1.0004627     -0.085133013    16.646123      1.5006794      21.104057      18.146803     -4.4579336      752.14799      49.687495      47.9954        47.9954       -0.069815958   -0.1227144     -0.062868677   -0.026106918   -0.022981635    0.035117111    1050.6563      85780.444    
    488000   488            0.99858126     0.055845157    16.637057      1.4978573      21.106154      18.134915     -4.4690966      1990.9552      49.697198      47.942229      47.942229      0.038675484    0.043621172    0.085238814    0.018871995   -0.0095376569   0.0016147093   1059.1486      85756.309    
    492000   492            0.99965116     0.0047473532   16.631664      1.4994621      21.107164      18.131126     -4.4754999      2399.2494      49.7069        47.924288      47.924288     -0.011139514    0.058483318   -0.033101744   -0.015289752    0.0075584368   0.0031971122   1067.6137      85730.25     
    496000   496            1.0017913      0.039152204    16.635168      1.5026723      21.108976      18.137841     -4.4738076      1731.2121      49.716603      47.910854      47.910854      0.0027624302   0.02814535     0.086548831   -0.026749051   -0.02053625     0.042002216    1076.0923      85705.547    
    500000   500            1.0015221     -0.016276957    16.639443      1.5022685      21.111108      18.141712     -4.4716643      1354.628       49.726306      47.939407      47.939407      0.0022108138  -0.026588382   -0.024453302    0.0531849     -0.05408631     0.028509973    1084.491       85674.792    
    504000   504            0.99816342    -0.046332396    16.631751      1.4972305      21.104754      18.128982     -4.4730026      2679.8166      49.736008      47.921531      47.921531     -0.024707786   -0.083044519   -0.031244882    0.00073484007  0.01333757     0.010938382    1092.8514      85641.39     
    508000   508            0.99820908    -0.056541014    16.637428      1.497299       21.105471      18.134727     -4.4680433      2111.1698      49.745711      47.935811      47.935811     -0.029872461   -0.030123289   -0.10962729     0.016910312    0.035232317   -0.055103912    1101.4171      85624.339    
    512000   512            1.0027157      0.022675499    16.633508      1.5040588      21.106466      18.137567     -4.4729579      1840.4594      49.755414      47.906183      47.906183      0.039448954    0.050679958   -0.022102415   -0.031660574   -0.018744742    0.0026512559   1109.8098      85594.08     
    516000   516            1.0017873     -0.06368508     16.627105      1.5026663      21.105917      18.129772     -4.4788112      2659.6082      49.765116      47.899469      47.899469     -0.041587038   -0.11802324    -0.031444964   -0.036939737    0.016387015    0.0081035542   1118.4713      85584.732    
    520000   520            0.99887432    -0.0055285951   16.632813      1.4982969      21.102056      18.13111      -4.4692425      2542.3277      49.774819      47.897504      47.897504     -0.034432014    0.010153015    0.0076932135   0.0018534765  -0.015568572   -0.027020844    1127.0674      85570.425    
    524000   524            1.0003737     -0.019917651    16.637197      1.5005459      21.109739      18.137743     -4.4725423      1883.0353      49.784522      47.887691      47.887691     -0.027591805   -0.058225836    0.026064688    0.011927902   -0.013127972   -0.028162135    1135.799       85566.412    
    528000   528            1.0031217      0.056722523    16.634204      1.5046678      21.106839      18.138872     -4.4726351      1787.0952      49.794225      47.871258      47.871258      0.063738558    0.028405291    0.078023719   -0.0050687971  -0.022924842    0.0056184283   1144.3982      85552.436    
    532000   532            0.99732065    -0.032287129    16.633867      1.4959664      21.104114      18.129833     -4.4702466      2733.4439      49.803927      47.865299      47.865299     -0.052374155   -0.0053041508  -0.039183081    0.0032808439  -0.017330693   -0.010640229    1152.5315      85503.975    
    536000   536            0.99696556     0.0080465309   16.628905      1.4954338      21.102754      18.124339     -4.4738486      3317.0278      49.81363       47.867991      47.867991     -0.012332839   -0.0096573489   0.04612978     0.017069175    0.016968398   -0.022429127    1160.8311      85468.354    
    540000   540            1.0022821      0.014627343    16.636808      1.5034085      21.106417      18.140217     -4.4696082      1709.6109      49.823333      47.863373      47.863373      0.021182427    0.077953954   -0.05525435    -0.045728757   -0.0069062341  -0.010832114    1169.3111      85446.329    
    544000   544            1.000427       0.033311823    16.633743      1.5006259      21.107513      18.134369     -4.47377        2329.047       49.833035      47.851747      47.851747      0.029682051    0.043424146    0.026829273   -0.020737782    0.036234129   -0.016471923    1178.1549      85450.884    
    548000   548            0.99579383     0.093777783    16.634454      1.4936762      21.109662      18.12813      -4.4752085      2988.8107      49.842738      47.843141      47.843141      0.082969581    0.088314727    0.11004904     0.017575559    0.014110779    0.028349176    1186.7162      85434.907    
    552000   552            1.0021715     -0.03835832     16.638813      1.5032426      21.107559      18.142056     -4.468746       1581.159       49.852441      47.889703      47.889703     -0.035858233   -0.024648473   -0.054568253   -0.014191403    0.0030686205  -0.0029261675   1195.3431      85423.72     
    556000   556            0.99592648    -0.04404094     16.638235      1.4938752      21.107685      18.13211      -4.4694497      2620.8081      49.862143      47.871864      47.871864     -0.054798116   -0.052840365   -0.024484339    0.00059874826 -0.0023960376  -0.025674174    1203.7569      85397.462    
    560000   560            0.9996014     -0.062130721    16.633796      1.4993875      21.105558      18.133184     -4.4717613      2530.5788      49.871846      47.861006      47.861006     -0.046650499   -0.065301775   -0.074439888   -0.0099603474  -0.0043905173   0.017310235    1212.3217      85382.082    
    564000   564            0.99877978     0.012684518    16.647413      1.498155       21.108453      18.145568     -4.4610404      1281.8957      49.881549      47.882304      47.882304      0.073477038   -0.0012358498  -0.034187636   -0.0272478      0.019556899   -0.0096786087   1220.646       85349.989    
    568000   568            0.99850454    -0.035318816    16.639613      1.4977422      21.1043        18.137356     -4.4646869      2143.4459      49.891251      47.884667      47.884667     -0.065573405   -0.041164418    0.00078137353  0.011441498   -0.015341411   -0.021118151    1229.2849      85340.075    
    572000   572            0.99465183    -0.050240161    16.644473      1.4919632      21.106609      18.136436     -4.4621364      2257.9066      49.900954      47.862138      47.862138     -0.069922796   -0.035083008   -0.045714679    0.01718126     0.014546107   -0.050760122    1237.952       85332.121    
    576000   576            1.00366       -0.022459803    16.633568      1.5054753      21.102554      18.139044     -4.468986       2010.8679      49.910657      47.846316      47.846316     -0.023768464   -0.05852424     0.014913295    0.0046775508   0.0055141013  -0.0050544757   1246.681       85328.39     
    580000   580            0.99709517     0.053379797    16.633218      1.4956282      21.1092        18.128846     -4.4759826      3076.5761      49.92036       47.800718      47.800718      0.02172951     0.025477738    0.11293214    -0.037645969    0.020755431   -0.028254124    1255.315       85318.13     
    584000   584            1.0054078     -0.031745132    16.628827      1.508097       21.107165      18.136924     -4.4783381      2268.4202      49.930062      47.804323      47.804323     -0.026964924   -0.019523638   -0.048746834    0.014880621   -0.012038341   -0.014138214    1263.7775      85296.323    
    588000   588            1.0032705     -0.050286802    16.636612      1.504891       21.109677      18.141503     -4.4730651      1819.3813      49.939765      47.831245      47.831245     -0.050764611   -0.071879058   -0.028216736    0.025494153   -0.008112752    0.00050539014  1272.2746      85277.02     
    592000   592            0.9952998     -0.0049292018   16.635551      1.4929351      21.105791      18.128486     -4.4702405      3173.5305      49.949468      47.822755      47.822755     -0.00070544648  0.0054050569  -0.019487216    0.029343701   -0.017588846   -0.029594352    1280.9279      85268.252    
    596000   596            1.000748       0.024777722    16.629789      1.5011073      21.109405      18.130896     -4.4796157      2946.435       49.95917       47.780489      47.780489     -0.018253096    0.013629108    0.078957156    0.034010811    0.00121528     0.035209765    1289.5141      85255.054    
    600000   600            1.0040841     -0.019655469    16.629129      1.5061115      21.107098      18.135241     -4.4779692      2521.2709      49.968873      47.775521      47.775521     -0.0068029296   0.012648321   -0.064811798   -0.043379839    0.023904035   -0.0020435342   1298.0286      85237.213    
    604000   604            1.0100462     -0.0060424803   16.634065      1.5150545      21.107593      18.14912      -4.4735273      1119.0809      49.978576      47.789608      47.789608     -0.022649353   -0.022680513    0.027202425    0.040758437    0.014574426    0.037435539    1306.6018      85223.317    
    608000   608            1.0052926      0.045092338    16.632854      1.5079241      21.104787      18.140778     -4.4719335      1994.2773      49.988278      47.78049       47.78049       0.050702026    0.045481861    0.039093126    0.0036519972   0.011139881    0.0026656551   1315.2314      85213.15     
    612000   612            1.0001373     -0.012355738    16.634561      1.5001913      21.106646      18.134752     -4.4720851      2632.1449      49.997981      47.792424      47.792424     -0.03790573     0.026977364   -0.02613885    -0.0022549254  -0.015594429    0.027285986    1323.8928      85205.049    
    616000   616            1.0052316      0.012228215    16.634331      1.5078327      21.106201      18.142164     -4.4718693      1892.7207      50.007684      47.771705      47.771705     -0.070710686    0.013128333    0.094266997   -0.027951868   -0.028065307   -0.014086206    1332.2541      85177.754    
    620000   620            1.0068963      0.018566412    16.643125      1.5103297      21.109755      18.153455     -4.4666299      756.23692      50.017386      47.790814      47.790814      0.0043126398   0.0066692168   0.04471738    -0.01617815     0.014726897   -0.028073358    1340.7638      85160.13     
    624000   624            1.0007959     -0.012642389    16.639031      1.5011792      21.107587      18.14021      -4.4685562      2134.0487      50.027089      47.769851      47.769851      0.0044412948  -0.022280245   -0.020088217    0.011442664    0.013388813   -0.033888986    1349.5007      85156.952    
    628000   628            0.9998423      0.020237018    16.635251      1.4997488      21.107596      18.135        -4.472345       2688.3732      50.036792      47.760915      47.760915      0.0079149017   0.055966389   -0.0031702377   0.02356477    -0.028156848    0.0040788337   1358.1417      85147.699    
    632000   632            0.99648161     0.042499503    16.62897       1.4947078      21.105129      18.123677     -4.476159       3869.0853      50.046495      47.746994      47.746994     -0.007320928    0.057218396    0.077601041   -0.056540751    0.0079234594   0.012003309    1366.7024      85133.45     
    636000   636            1.0002917      0.0080530712   16.624677      1.5004229      21.107005      18.1251       -4.4823282      3742.9203      50.056197      47.730286      47.730286     -0.02819907     0.037238176    0.015120108   -0.0026875711  -0.04161084     0.01207097     1375.3726      85126.046    
    640000   640            1.0037589     -0.019171168    16.635269      1.5056237      21.106924      18.140893     -4.4716543      2144.5797      50.0659        47.758663      47.758663      0.019480268   -0.03376976    -0.043224013   -0.01792887    -0.015489796    0.020549567    1383.9249      85111.381    
    644000   644            0.99792456    -0.046926472    16.638897      1.4968722      21.105756      18.13577      -4.4668589      2689.8266      50.075603      47.776984      47.776984     -0.057376932   -0.069307988   -0.014094496    0.011695475   -0.0092444984   0.025976377    1392.4454      85094.849    
    648000   648            0.99532676    -0.048657261    16.632244      1.4929756      21.1055        18.125219     -4.4732566      3791.4445      50.085305      47.751672      47.751672     -0.036238632   -0.064690979   -0.045042172   -0.066383412    0.011706188    0.01593049     1401.0214      85081.78     
    652000   652            1.0011691      0.0024800447   16.633912      1.5017391      21.103542      18.135651     -4.4696304      2742.0916      50.095008      47.746593      47.746593     -0.015944071    0.0069314709   0.016452734   -0.027459829    0.024701374   -0.00011167788  1409.7263      85076.548    
    656000   656            1.0009989      0.0052133308   16.635749      1.5014837      21.106041      18.137233     -4.470292       2600.1187      50.104711      47.74083       47.74083      -0.027855522    0.04546079    -0.0019652758  -0.021216384    0.066996443   -0.02417866     1418.4183      85070.503    
    660000   660            0.99672761     0.045548452    16.63653       1.4950768      21.108598      18.131607     -4.4720684      3196.9134      50.114413      47.725635      47.725635      0.072511177    0.010424422    0.053709757    0.028317425    0.038153745   -0.032312616    1427.0683      85061.921    
    664000   664            1.0008761      0.045568448    16.631069      1.5012995      21.102074      18.132368     -4.4710055      3138.8055      50.124116      47.729636      47.729636      0.070002617    0.047843288    0.01885944    -0.0064636724   0.01387676    -0.0085035582   1435.7562      85055.582    
    668000   668            0.99788931     0.010430379    16.646152      1.4968194      21.109764      18.142971     -4.4636116      2072.3499      50.133819      47.748787      47.748787      0.017674608    0.018777711   -0.0051611828  -0.031203214    0.021020329    0.00839247     1444.1913      85034.331    
    672000   672            0.99642634    -0.045977245    16.638602      1.4946249      21.109443      18.133227     -4.4708407      3090.8701      50.143522      47.735539      47.735539     -0.043843394   -0.052307252   -0.04178109     0.050861775    0.022161315   -0.053632503    1452.4713      85004.152    
    676000   676            0.9976733      0.014190777    16.632987      1.4964953      21.103586      18.129483     -4.4705988      3494.659       50.153224      47.732488      47.732488      0.0020610593   0.020396967    0.020114305    0.038442313   -0.016195027    0.032896053    1460.9694      84986.926    
    680000   680            1.0007609     -0.056996045    16.636319      1.5011267      21.102964      18.137446     -4.4666447      2698.0508      50.162927      47.73256       47.73256      -0.05584531    -0.027006305   -0.08813652     0.012430504    0.0058948659  -0.020416168    1469.5587      84975.072    
    684000   684            1.0001863      0.0038385637   16.63759       1.5002648      21.103635      18.137855     -4.466045       2675.7835      50.17263       47.722662      47.722662     -0.020253783   -0.019254164    0.051023638    0.039430676    0.019683205   -0.022242121    1478.1519      84963.479    
    688000   688            1.0028429      0.00049390325  16.632726      1.5042497      21.10395       18.136975     -4.4712242      2786.1815      50.182332      47.70664       47.70664       0.038711488   -0.066873354    0.029643576    0.0085236738   0.0025155845   0.0356447      1486.7937      84954.698    
    692000   692            0.9996982     -0.0041795114   16.631728      1.4995327      21.106331      18.131261     -4.4746033      3392.1743      50.192035      47.659085      47.659085     -0.029507402    0.038426173   -0.021457306   -0.0034002986  -0.016256841   -0.024148139    1495.5253      84951.022    
    696000   696            0.99806566     0.042524639    16.628086      1.4970839      21.101926      18.12517      -4.4738401      4035.8059      50.201738      47.680123      47.680123      0.018999774    0.040132819    0.068441324    0.02820114    -0.034352608   -0.0017645583   1504.2264      84945.565    
    700000   700            1.0023405     -0.031799641    16.636515      1.5034961      21.104321      18.140011     -4.4678065      2535.3001      50.21144       47.696757      47.696757     -0.020672316   -0.015130899   -0.05959571    -0.04186709    -0.028349721    0.024463356    1512.6254      84923.113    
    704000   704            0.99982774     0.061702351    16.635518      1.499727       21.107661      18.135245     -4.4721424      3043.8412      50.221143      47.67075       47.67075       0.047013797    0.079545844    0.058547412   -0.0098200325  -0.013773268   -0.020979688    1521.2323      84912.423    
    708000   708            0.99607515    -0.011733438    16.627709      1.4940982      21.104836      18.121808     -4.4771267      4440.4953      50.230846      47.650628      47.650628      0.0041242031  -0.044640255    0.0053157375  -0.0090921054  -0.010585645   -0.022815368    1529.8826      84904.165    
    712000   712            0.99668956    -0.04809278     16.634669      1.4950198      21.105439      18.129689     -4.4707696      3653.3437      50.240548      47.68636       47.68636      -0.050143605   -0.10864607     0.014511337    0.048653017    0.002262333   -0.01684002     1538.5642      84897.628    
    716000   716            0.99850614     0.032735236    16.638567      1.4977446      21.107244      18.136311     -4.4686768      2994.7261      50.250251      47.682094      47.682094     -0.014321459    0.045578454    0.066948712    0.0048237442   0.010826009   -0.030686803    1547.108       84883.505    
    720000   720            1.0043386      0.020333487    16.637921      1.5064932      21.106121      18.144414     -4.4682002      2184.2414      50.259954      47.671563      47.671563      0.044455688    0.018457216   -0.001912443    0.0074903231   0.020736279   -0.01972407     1555.8504      84880.285    
    724000   724            0.9978421     -0.019295739    16.644097      1.4967485      21.108375      18.140845     -4.4642784      2570.2041      50.269657      47.689057      47.689057     -0.020348529    0.0043496071  -0.041888296    0.024446857   -0.023130287    0.019468932    1564.2299      84857.314    
    728000   728            0.99908064    -0.038264253    16.633232      1.4986063      21.104637      18.131838     -4.4714052      3512.8683      50.279359      47.675255      47.675255     -0.020129173   -0.031875061   -0.062788526   -0.050881057   -0.032656971    0.022094969    1572.4382      84825.266    
    732000   732            0.99966809    -0.057535938    16.633443      1.4994875      21.101721      18.132931     -4.4682776      3420.8612      50.289062      47.679089      47.679089     -0.11335574    -0.0081694685  -0.051082601   -0.040374088    0.035853384    0.0026158664   1580.7034      84796.532    
    736000   736            0.99555414    -0.032914154    16.632882      1.4933166      21.107417      18.126198     -4.4745358      4130.9866      50.298765      47.641732      47.641732     -0.05626977    -0.021336842   -0.021135852    0.06255776    -0.01788586    -0.0073594463   1591.6338      84910.204    
    740000   740            1.0004098     -0.025681689    16.637026      1.5006001      21.105305      18.137627     -4.468279       2979.9992      50.308467      47.665244      47.665244     -0.045006874   -0.0098739315  -0.022164262    0.011552355    0.05233473    -0.01086478     1602.4934      85018.77     
    744000   744            0.99700144    -0.046485757    16.643413      1.4954876      21.107527      18.138901     -4.4641141      2869.5335      50.31817       47.670125      47.670125     -0.047133885   -0.088413923   -0.0039094607   0.030882752    0.0083378554   0.013733406    1611.5088      85028.751    
    748000   748            0.99316669    -0.070238079    16.64438       1.4897355      21.105201      18.134115     -4.4608215      3380.023       50.327873      47.68221       47.68221      -0.12998737    -0.029966664   -0.050760199    0.029241914   -0.051703568   -0.01186135     1620.4613      85035.222    
    752000   752            0.99037035    -0.06802606     16.636375      1.485541       21.110198      18.121916     -4.4738227      4650.4591      50.337575      47.639818      47.639818     -0.070961356   -0.092490736   -0.040626088    0.031523049    0.018107943    0.020909463    1628.3298      84984.957    
    756000   756            0.9992701      0.0066579931   16.635631      1.4988905      21.106448      18.134521     -4.4708172      3378.157       50.347278      47.623174      47.623174      0.0076247219   0.02969969    -0.017350433    0.0071426002   0.031808487   -0.016683429    1636.2523      84937.944    
    760000   760            0.99758533    -0.031949159    16.64093       1.4963634      21.108577      18.137294     -4.4676464      3113.9546      50.356981      47.639994      47.639994     -0.0091677224  -0.035942294   -0.050737462   -0.00057770794  0.0096970501   0.010892148    1644.1788      84891.545    
    764000   764            0.99643836    -0.0089701263   16.631774      1.494643       21.1059        18.126417     -4.4741262      4248.6576      50.366683      47.605606      47.605606     -0.016497845    0.0026269347  -0.013039469    0.0042390711   0.056920783    0.00089490411  1652.3496      84858.103    
    768000   768            1.0000326      0.035254276    16.63318       1.5000342      21.107459      18.133214     -4.4742786      3571.7235      50.376386      47.589144      47.589144      0.053473957    0.034050429    0.018238442   -0.0040392063  -0.02222503     0.025098553    1660.5489      84826.373    
    772000   772            1.0000174     -0.011986883    16.635196      1.5000115      21.108134      18.135207     -4.4729384      3387.3659      50.386089      47.604818      47.604818      0.031789447   -0.022421446   -0.045328651    0.042723669    0.017945642    0.024956777    1668.5912      84786.913    
    776000   776            1.0006689     -0.046996513    16.638118      1.5009887      21.10859       18.139106     -4.4704724      3007.7959      50.395792      47.610044      47.610044     -0.004763841   -0.050170131   -0.086055569    0.0054167189  -0.011317378    0.019945371    1676.6054      84746.356    
    780000   780            1.0024336      0.032003529    16.642825      1.5036357      21.106764      18.146461     -4.4639393      2273.9069      50.405494      47.617623      47.617623      0.029805       0.028705634    0.037499954   -0.0087171302   0.023696676    0.011201823    1684.7884      84714.615    
    784000   784            0.99936256     0.077375716    16.634921      1.4990292      21.105726      18.13395      -4.4708056      3575.9474      50.415197      47.589038      47.589038      0.087817863    0.081282142    0.063027142   -0.009046368   -0.0066466792  -0.01165091     1692.7454      84671.818    
    788000   788            1.0009053      0.0019696363   16.63157       1.5013432      21.10617       18.132913     -4.4745994      3701.9226      50.4249        47.57593       47.57593       0.0061280356   0.0055260305  -0.0057451572   0.017842523   -0.024878845   -0.053771687    1700.7589      84632.18     
    792000   792            1.0008496      0.044121164    16.640765      1.5012598      21.10854       18.142024     -4.467775       2788.3721      50.434602      47.58315       47.58315       0.0083858284   0.075514995    0.048462668    0.0070942014  -0.027231882    0.010357177    1708.8447      84596.442    
    796000   796            1.0050224      0.054194076    16.632934      1.5075189      21.110613      18.140453     -4.4776794      2969.1003      50.444305      47.537185      47.537185      0.0068000209   0.081264939    0.074517269    0.0069861063   0.02718008     0.015234598    1716.8843      84558.708    
    800000   800            1.0051019      0.02673381     16.625799      1.5076381      21.107776      18.133437     -4.4819774      3707.8042      50.454008      47.540405      47.540405      0.029467738   -0.027146113    0.077879804   -0.025472459    0.023216166   -0.019212085    1724.797       84515.053    
    804000   804            1.0023135      0.022390124    16.633415      1.5034556      21.106477      18.13687      -4.4730625      3375.927       50.46371       47.55286       47.55286       0.012900874    0.062665744   -0.0083962458   0.01108547     0.018543829    0.00077702094  1732.979       84484.88     
    808000   808            1.003914       0.043815926    16.634901      1.5058563      21.10755       18.140757     -4.4726492      2997.2326      50.473413      47.563106      47.563106      0.067749813   -0.0068513156   0.07054928    -0.011378009   -0.0082520793   0.0010052054   1741.2117      84457.389    
    812000   812            0.99963004    -0.0077488384   16.638873      1.4994304      21.110732      18.138304     -4.4718588      3268.676       50.483116      47.554795      47.554795     -0.010581984   -0.019763128    0.0070985977  -0.045777722   -0.04865471    -0.030578901    1749.1458      84415.672    
    816000   816            1.0005793     -0.06958058     16.625407      1.5008544      21.103088      18.126262     -4.4776812      4522.7863      50.492818      47.553161      47.553161     -0.02312809    -0.10220283    -0.083410815   -0.012312374   -0.0063666246  -0.018786407    1757.4425      84391.698    
    820000   820            0.99874073     0.011190047    16.638354      1.4980965      21.107451      18.13645      -4.4690971      3498.6047      50.502521      47.564133      47.564133     -0.020803173    0.014843145    0.039530168    0.0013385858  -0.067526968    0.031335154    1765.6452      84363.387    
    824000   824            0.99989623     0.016957283    16.640957      1.4998297      21.104735      18.140787     -4.463778       3074.1408      50.512224      47.581654      47.581654     -0.049151       0.015039119    0.08498373    -0.024829118    0.017814936    0.0081344075   1773.713       84328.861    
    828000   828            0.998163      -0.047577502    16.634223      1.4972299      21.103853      18.131452     -4.4696305      4050.8465      50.521927      47.557987      47.557987     -0.12799647    -0.047201042    0.032465007    0.024558906   -0.050342489   -0.018300737    1781.6918      84290.376    
    832000   832            0.99612436    -0.004560367    16.635656      1.494172       21.105904      18.129828     -4.4702479      4236.9615      50.531629      47.542566      47.542566      0.044344246   -0.022994097   -0.03503125     0.0082720721  -0.005837048    0.00093125315  1789.9581      84265.719    
    836000   836            1.0004038     -0.037977412    16.641233      1.5005911      21.105925      18.141824     -4.4646919      3027.8736      50.541332      47.552934      47.552934     -0.061142318    0.023768144   -0.076558061    0.011454318   -0.022557562   -0.0047414622   1798.044       84232.769    
    840000   840            1.0066939     -0.053847618    16.632768      1.5100262      21.106489      18.142794     -4.4737205      2948.6033      50.551035      47.525775      47.525775     -0.094675699   -0.021388704   -0.045478452    0.004821985    0.018106645    0.0079557543   1805.8779      84188.308    
    844000   844            0.9989185      0.068759409    16.633399      1.4983631      21.105799      18.131762     -4.4724002      4099.3864      50.560737      47.514017      47.514017      0.096158482    0.028644053    0.081475694   -0.018736557    0.015092155   -0.008435605    1813.9064      84153.221    
    848000   848            0.99752622    -0.017544403    16.641752      1.4962747      21.107678      18.138027     -4.4659265      3476.9723      50.57044       47.548999      47.548999      0.016461394   -0.072857607    0.0037630043   0.0014974282  -0.027462748   -0.014363309    1821.9592      84119.514    
    852000   852            0.99978054    -0.043846185    16.647171      1.4996562      21.110049      18.146827     -4.4628781      2595.5711      50.580143      47.556644      47.556644     -0.062587198   -0.018107588   -0.05084377    -0.027734873    0.053131473    0.023724983    1830.3609      84102.074    
    856000   856            0.99450928    -0.013737335    16.646389      1.4917494      21.111367      18.138139     -4.4649775      3506.2715      50.589845      47.531069      47.531069     -0.0081047487  -0.038160257    0.0050529995   0.015381089   -0.0011335185   0.041608614    1838.5283      84074.007    
    860000   860            1.0007728     -0.0038226276   16.635819      1.5011445      21.105357      18.136963     -4.4695385      3646.446       50.599548      47.5144        47.5144        0.0035524099  -0.0050797947  -0.009940498   -0.052037084   -0.03427899     0.020791293    1846.642       84043.684    
    864000   864            0.99857321    -0.015198038    16.625706      1.4978452      21.104224      18.123551     -4.4785182      5040.7837      50.609251      47.467906      47.467906     -0.0017938071  -0.018532122   -0.025268185   -0.00065122091 -0.015087379   -0.016561588    1854.9208      84021.044    
    868000   868            0.99782444    -0.038492943    16.630895      1.4967221      21.110284      18.127617     -4.4793892      4644.2306      50.618953      47.478907      47.478907     -0.058807682   -0.01816947    -0.038501676   -0.015907535    0.047337346    0.059000134    1862.8633      83983.373    
    872000   872            0.99910296    -0.012655092    16.637931      1.4986398      21.108832      18.136571     -4.4709008      3746.5885      50.628656      47.493735      47.493735     -0.052550092   -0.012044738    0.026629553    0.0013843293  -0.015115594    0.009293285    1870.7803      83944.829    
[...]
  39768000   39768          0.99536753    -0.11741753     16.652918      1.4930367      21.110869      18.145955     -4.4579505      124608.63      144.97765      28.101584      28.101584     -0.35374403     0.035120233   -0.033628796   -0.027231797   -0.014717985    0.02470025     91733.046      535.15557    
  39772000   39772          0.99580342    -0.13152718     16.645243      1.4936906      21.105883      18.138933     -4.4606404      125337.73      144.98735      28.099653      28.099653     -0.41517665     0.026676454   -0.0060813384  -0.063026182   -0.020059081   -0.038422546    91744.012      525.93872    
  39776000   39776          1.0011717     -0.13819536     16.640877      1.5017429      21.108537      18.142619     -4.4676602      124969.33      144.99706      28.08463       28.08463      -0.35204333     0.030870841   -0.093413589    0.037606042    0.0025852706  -0.015725868    91754.78       516.7204     
  39780000   39780          1.0032063     -0.087689674    16.649267      1.5047948      21.105626      18.154062     -4.4563583      123806.01      145.00676      28.100191      28.100191     -0.38053036     0.066297769    0.051163573   -0.013938943    0.0074895312   0.01417703     91765.574      507.50192    
  39784000   39784          0.99784188    -0.14495039     16.646301      1.4967482      21.107973      18.143049     -4.4616715      124944.62      145.01646      28.095867      28.095867     -0.30180242    -0.03486364    -0.098185111   -6.0431482e-05 -0.0045105173  -0.01941026     91776.493      498.28379    
  39788000   39788          0.99600015    -0.14253111     16.649009      1.4939856      21.105982      18.142994     -4.4569731      124959.97      145.02616      28.104647      28.104647     -0.39389685    -0.019607596   -0.014088885   -0.070886855    0.0023325094   0.0057973568   91787.347      489.06498    
  39792000   39792          1.0000195     -0.12841657     16.647692      1.5000146      21.106906      18.147707     -4.459214       124486.36      145.03587      28.107483      28.107483     -0.41995017     0.00262864     0.032071823    0.034791966    0.018179594    0.011206882    91798.233      479.84601    
  39796000   39796          1.0034967     -0.10148161     16.649533      1.5052303      21.105748      18.154763     -4.4562153      123773.03      145.04557      28.10664       28.10664      -0.36471215     0.027715901    0.032551418   -0.038821468   -0.047514145   -0.036600449    91809.233      470.62729    
  39800000   39800          0.99904486    -0.10183197     16.651342      1.4985527      21.103094      18.149895     -4.4517525      124281.66      145.05527      28.114231      28.114231     -0.38661616     0.016832079    0.064288175   -0.012664749   -0.026213224   -0.015450187    91819.904      461.40655    
  39804000   39804          0.99765854    -0.15566513     16.651799      1.4964732      21.109447      18.148272     -4.4576478      124457.88      145.06497      28.106634      28.106634     -0.38923525    -0.051923918   -0.025836215   -0.060578216    0.025021634   -0.023061954    91830.846      452.18686    
  39808000   39808          1.002059      -0.16591106     16.657904      1.5030738      21.107573      18.160978     -4.449669       123165.05      145.07468      28.111869      28.111869     -0.39636071    -0.030787179   -0.070585304    0.031467024    0.01063272    -0.015625657    91841.78       442.96679    
  39812000   39812          0.99887159    -0.066411599    16.64741       1.4982928      21.111398      18.145703     -4.4639876      124740.32      145.08438      28.093078      28.093078     -0.26335042     0.0081094575   0.056006169    0.052174263   -0.017504324   -0.010504743    91852.736      433.74647    
  39816000   39816          1.0001819     -0.15556363     16.641069      1.5002582      21.103592      18.141327     -4.4625229      125198.28      145.09408      28.086769      28.086769     -0.41444529    -0.00045086874 -0.051794721   -0.020337227   -0.01889099    -0.040499086    91863.659      424.52565    
  39820000   39820          1.0031036     -0.073808898    16.649764      1.5046407      21.108111      18.154404     -4.4583471      123867.68      145.10379      28.090467      28.090467     -0.29771259     0.016842792    0.059443106   -0.048273508   -0.020036226   -0.0021280557   91874.679      415.30493    
  39824000   39824          0.99906971    -0.094125915    16.651681      1.4985899      21.11368       18.150271     -4.4619998      124301.1       145.11349      28.077468      28.077468     -0.36110424     0.038924804    0.039801693   -0.014985105    0.025118619   -0.019793308    91885.809      406.08433    
  39828000   39828          0.99841175    -0.12467946     16.647168      1.497603       21.105874      18.144771     -4.4587063      124874.21      145.12319      28.085068      28.085068     -0.36338638     0.014117364   -0.024769373    0.0357192      0.060993473   -0.000112043    91896.743      396.8625     
  39832000   39832          0.99819508    -0.19729656     16.647582      1.497278       21.108669      18.14486      -4.4610868      124874.54      145.13289      28.093697      28.093697     -0.43266551    -0.04871263    -0.11051154    -0.0055661878  -0.027990103    0.014643186    91907.648      387.64021    
  39836000   39836          1.0013126     -0.13843123     16.651748      1.5019543      21.106516      18.153703     -4.4547675      123977.79      145.1426       28.097772      28.097772     -0.30301532    -0.076775426   -0.035502952   -0.019713794    0.033826386    0.016594396    91918.614      378.41783    
  39840000   39840          0.99829426    -0.18754203     16.649523      1.4974268      21.108181      18.14695      -4.4586586      124679.78      145.1523       28.095689      28.095689     -0.44279527    -0.055384984   -0.064445824   -0.014199686    0.014026569   -0.00031667591  91929.617      369.19525    
  39844000   39844          0.99705633    -0.13797516     16.644437      1.4955699      21.107422      18.140007     -4.4629854      125400.76      145.162        28.07861       28.07861      -0.31458754    -0.075951347   -0.023386602   -0.0097901257  -0.00028293698 -0.015757309    91940.352      359.97126    
  39848000   39848          1.0044442     -0.13427754     16.642472      1.5066516      21.106379      18.149124     -4.4639074      124475.75      145.1717       28.068945      28.068945     -0.31031729    -0.038621742   -0.053893607    0.028948663    0.014743687   -0.028443737    91951.387      350.74811    
  39852000   39852          1.0001815     -0.14089453     16.649222      1.5002577      21.108907      18.149479     -4.4596858      124448.87      145.18141      28.088401      28.088401     -0.36700057    -0.010067952   -0.045615061   -0.039723218    0.0081339513   0.014594799    91962.305      341.52417    
  39856000   39856          0.9972769     -0.1343226      16.64865       1.4959008      21.109565      18.14455      -4.4609149      124963.49      145.19111      28.07395       28.07395      -0.43812465     0.035445533   -0.00028867307 -0.019664587   -0.017867574   -0.023423755    91973.361      332.30038    
  39860000   39860          0.99553559    -0.11395475     16.646622      1.4932888      21.109359      18.139911     -4.4627376      125448.87      145.20081      28.076604      28.076604     -0.32481941    -0.053798619    0.036753789   -0.020117379   -0.003456054    0.018773843    91984.303      323.07583    
  39864000   39864          0.99855459    -0.13760968     16.640766      1.4978173      21.105951      18.138584     -4.4651845      125594.31      145.21052      28.065057      28.065057     -0.36181449    -0.035920106   -0.015094451    0.022944999    0.0087043557   0.013169562    91995.094      313.85041    
  39868000   39868          0.99945382    -0.1262477      16.649569      1.4991661      21.108558      18.148735     -4.4589894      124563.39      145.22022      28.086462      28.086462     -0.3708331     -0.029844459    0.021934447    0.0036155775  -0.0023265018   0.015780055    92006.167      304.62562    
  39872000   39872          1.0047363     -0.12742107     16.649268      1.5070897      21.111036      18.156358     -4.4617683      123791.72      145.22992      28.075215      28.075215     -0.38522938     0.025425796   -0.022459627    0.030670075   -0.029003347   -0.013912087    92017.03       295.39978    
  39876000   39876          1.0002074     -0.12102656     16.639786      1.5002965      21.103422      18.140083     -4.463636       125468.9       145.23962      28.066506      28.066506     -0.39389093     0.039989986   -0.0091787184   0.01324147    -0.050697751   -0.0012276868   92027.792      286.17329    
  39880000   39880          1.0039347     -0.10404035     16.641056      1.5058873      21.102463      18.146944     -4.4614065      124775.11      145.24933      28.071294      28.071294     -0.35352695     0.021841727    0.01956418     0.022024449   -0.028158931   -0.008360213    92038.844      276.94738    
  39884000   39884          0.99875504    -0.085584244    16.653433      1.4981179      21.105208      18.151551     -4.451775       124312.75      145.25903      28.083079      28.083079     -0.30568533     0.040124898    0.008807703   -0.041090554    0.01160216     0.046436485    92049.644      267.72036    
  39888000   39888          1.0001527     -0.10645392     16.647208      1.5002144      21.10635       18.147422     -4.4591421      124745.46      145.26873      28.076274      28.076274     -0.30164093    -0.016080608   -0.001640205    0.032686148   -0.0069218129   0.010059427    92060.535      258.49328    
  39892000   39892          0.9984287     -0.081628108    16.649759      1.4976284      21.105009      18.147387     -4.4552501      124758.51      145.27843      28.070982      28.070982     -0.33582149     0.050280568    0.0406566      0.046530821   -0.0095232616   0.011292808    92071.379      249.26574    
  39896000   39896          1.0003637     -0.11703172     16.642393      1.5005309      21.111528      18.142924     -4.469135       125225.69      145.28814      28.049037      28.049037     -0.40393068     0.033548267    0.01928724    -0.022233098    0.044220766   -0.010899065    92082.152      240.03769    
  39900000   39900          1.0019609     -0.024403699    16.637401      1.5029266      21.105124      18.140328     -4.4677233      125501.39      145.29784      28.042398      28.042398     -0.24314137     0.070102561    0.099827708    0.0084050351  -0.019366454    0.014345167    92093.094      230.80976    
  39904000   39904          0.99808782    -0.094859757    16.658858      1.4971171      21.114906      18.155975     -4.4560484      123907.33      145.30754      28.069731      28.069731     -0.36207744     0.036420441    0.041077729   -0.02363578     0.029880947    0.00862478     92104.039      221.58149    
  39908000   39908          0.99824124    -0.099006095    16.651786      1.4973473      21.107979      18.149133     -4.4561926      124618.03      145.31724      28.067233      28.067233     -0.37666295     0.034500609    0.045144056   -0.025742741    0.01451364     0.0014556232   92114.873      212.35262    
  39912000   39912          0.99864262    -0.10728847     16.647154      1.4979493      21.106731      18.145104     -4.4595765      125040.51      145.32695      28.069738      28.069738     -0.35372052    -0.016176371    0.048031486   -0.0045048883   0.017494268   -0.006806561    92125.73       203.12348    
  39916000   39916          1.0025877     -0.13065359     16.653923      1.5038669      21.108607      18.15779      -4.4546845      123750.29      145.33665      28.076436      28.076436     -0.36089822     0.0040962616  -0.03515881    -0.023530939    0.010025914    0.022471057    92136.685      193.89422    
  39920000   39920          0.99762853    -0.15671552     16.655367      1.4964282      21.111724      18.151795     -4.456357       124374.05      145.34635      28.077701      28.077701     -0.4180027     -0.03854497    -0.013598901    0.01356165     0.0077438081  -0.024358773    92147.459      184.66425    
  39924000   39924          0.99726201    -0.17956243     16.650237      1.4958784      21.107366      18.146115     -4.4571294      124965.65      145.35606      28.075999      28.075999     -0.46155135    -0.031482695   -0.045653246   -0.0064219939   0.037476048    0.0073508217   92158.263      175.43402    
  39928000   39928          1.0014088     -0.13434433     16.640365      1.5020986      21.105235      18.142463     -4.4648706      125349.64      145.36576      28.060494      28.060494     -0.38343563     0.0099014215  -0.02949879     0.01377321     0.011715898   -0.011159507    92169.099      166.20354    
  39932000   39932          1.0001357     -0.12026925     16.635894      1.500189       21.106066      18.136083     -4.4701722      126013.15      145.37546      28.042744      28.042744     -0.3368187     -3.4009408e-05 -0.023955048   -0.023841942   -0.0022937129  -0.011943513    92179.788      156.97249    
  39936000   39936          0.99704851    -0.14560053     16.652687      1.4955582      21.106861      18.148245     -4.454174       124776.21      145.38516      28.076033      28.076033     -0.39255041    -0.011737516   -0.032513675    0.022085729   -0.052573175   -0.018692702    92190.497      147.74118    
  39940000   39940          1.0008397     -0.11970074     16.645277      1.5012449      21.107847      18.146522     -4.4625704      124962.37      145.39487      28.0563        28.0563       -0.41133685     0.07599732    -0.023762705   -0.0094846771  -0.00045581098  0.01879227     92201.598      138.51016    
  39944000   39944          0.99681112    -0.17722031     16.642742      1.4952021      21.107712      18.137944     -4.46497        125850.92      145.40457      28.053628      28.053628     -0.40525838    -0.069417646   -0.056984896    0.038893312    0.031106687    0.034006074    92212.469      129.27845    
  39948000   39948          0.99763457    -0.09509205     16.648366      1.4964372      21.108865      18.144803     -4.4604996      125157.41      145.41427      28.053952      28.053952     -0.33255124     0.080950862   -0.033675767   -0.0075695028   0.05121054    -0.0099107231   92223.368      120.04644    
  39952000   39952          1.0010742     -0.17464684     16.651113      1.5015966      21.108004      18.15271      -4.4568909      124356.6       145.42397      28.072542      28.072542     -0.37195212    -0.066363537   -0.085624846   -0.016600508   -0.015564415   -0.0067237032   92234.381      110.81423    
  39956000   39956          0.99580971    -0.09751561     16.647876      1.4937         21.10762       18.141576     -4.4597439      125507.37      145.43368      28.061485      28.061485     -0.35682513     0.011576667    0.052701628   -0.040001603   -0.0076005143  -0.019101631    92245.17       101.58143    
  39960000   39960          0.99670125    -0.14774497     16.647258      1.4950373      21.106281      18.142295     -4.4590237      125443.41      145.44338      28.063416      28.063416     -0.35481768     0.0058560949  -0.094273324   -0.019602771    0.02302048     0.00098502743  92256.014      92.348362    
  39964000   39964          0.99878166    -0.16257252     16.653522      1.4981579      21.11046       18.15168      -4.4569384      124490.94      145.45308      28.067777      28.067777     -0.40913453    -0.034280275   -0.044302757    0.023593918   -0.02639313     0.0069672003   92266.687      83.114821    
  39968000   39968          1.0000294     -0.078587753    16.646903      1.5000294      21.109254      18.146932     -4.4623511      124986.94      145.46279      28.042849      28.042849     -0.30715782     0.056477106    0.01491745    -0.043717296    0.0022400753   0.029330907    92277.602      73.881186    
  39972000   39972          0.99654965    -0.1113742      16.638052      1.4948099      21.105321      18.132862     -4.467269       126438.55      145.47249      28.037081      28.037081     -0.34263631    -0.00056465278  0.009078361   -0.0093541791  -0.0078848222   0.024636128    92288.728      64.647363    
  39976000   39976          0.99780994    -0.14141194     16.645492      1.4967003      21.107742      18.142193     -4.4622494      125491.74      145.48219      28.050421      28.050421     -0.38978848    -0.014231957   -0.020215397    0.071044516    0.013986806    0.061503221    92299.913      55.413196    
  39980000   39980          0.99907793    -0.10399098     16.649358      1.4986023      21.107137      18.14796      -4.457779       124910.14      145.49189      28.054234      28.054234     -0.36541162     0.067396429   -0.013957745   -0.0096555246   0.032064418    0.018948418    92310.875      46.178527    
  39984000   39984          1.0046122     -0.14097285     16.649082      1.5069035      21.105836      18.155986     -4.4567536      124097.23      145.5016       28.056278      28.056278     -0.36302682    -0.01979971    -0.040092032   -0.026544126    0.070063078    0.0066638914   92321.721      36.943466    
  39988000   39988          1.0012052     -0.1084033      16.655197      1.5017931      21.107155      18.15699      -4.4519579      124003.89      145.5113       28.063664      28.063664     -0.28671469    -0.034429251   -0.0040659497   0.00043596925 -0.035040154   -0.020653015    92332.587      27.708089    
  39992000   39992          0.99861572    -0.16599823     16.648141      1.497909       21.10868       18.14605      -4.4605391      125134.8       145.521        28.054688      28.054688     -0.39629289    -0.094097894   -0.0076038976   0.019518939   -0.034097663    0.030311262    92343.489      18.472392    
  39996000   39996          1.0031639     -0.11236334     16.637381      1.5047312      21.106051      18.142112     -4.4686696      125547.89      145.5307       28.032707      28.032707     -0.3449334      0.020551381   -0.012708016   -0.004476118    0.0033380365   0.017380674    92354.669      9.2363905    
  40000000   40000          0.99793262    -0.053333915    16.644525      1.4968843      21.111448      18.141409     -4.4669231      125629.49      145.54041      28.021619      28.021619     -0.30069548     0.088489026    0.052204713   -0.019667396    0.027057184   -0.014846203    92365.492      0            
Loop time of 92365.5 on 18 procs for 40000000 steps with 102500 atoms

Performance: 37416.571 tau/day, 433.062 timesteps/s
93.2% CPU use with 18 MPI tasks x 1 OpenMP threads

MPI task timing breakdown:
Section |  min time  |  avg time  |  max time  |%varavg| %total
---------------------------------------------------------------
Pair    | 9975.2     | 10687      | 12564      | 710.7 | 11.57
Bond    | 11843      | 12671      | 15734      |1045.2 | 13.72
Neigh   | 271.25     | 306.55     | 333.2      | 114.7 |  0.33
Comm    | 16477      | 21175      | 22449      |1195.5 | 22.92
Output  | 922.27     | 922.35     | 922.38     |   0.1 |  1.00
Modify  | 43644      | 43992      | 44351      | 100.4 | 47.63
Other   |            | 2611       |            |       |  2.83

Nlocal:        5694.44 ave        5732 max        5654 min
Histogram: 2 1 1 1 4 2 2 2 1 2
Nghost:        9994.06 ave       10047 max        9950 min
Histogram: 2 1 2 4 2 2 1 2 1 1
Neighs:              0 ave           0 max           0 min
Histogram: 18 0 0 0 0 0 0 0 0 0

Total # of neighbors = 0
Ave neighs/atom = 0
Ave special neighs/atom = 6.6262829
Neighbor list builds = 1331864
Dangerous builds = 0

# GENERATION RESTART
write_restart ./out.deform.restart
System init for write_restart ...
Generated 0 of 36 mixed pair_coeff terms from geometric mixing rule
write_data    ./out.deform.data pair ij
System init for write_data ...
Generated 0 of 36 mixed pair_coeff terms from geometric mixing rule
Total wall time: 25:39:28
