LAMMPS (15 Sep 2022)
OMP_NUM_THREADS environment is not set. Defaulting to 1 thread. (src/comm.cpp:98)
  using 1 OpenMP thread(s) per MPI task
package gpu 0 binsize 12.0
# LAMMPS Script for deform
# Generated 12/17/2022

# INIT PARAMS & READ CONF
include   "/work_bgfs/h/harshad/simulation_9/neat_polymer/config_3/system.init"
# UNITS
units		lj
dimension	3
atom_style	bond

# INPUT FILE
pair_style	lj/cut 2.5
bond_style	fene
read_data /work_bgfs/h/harshad/simulation_9/neat_polymer/config_3/quiescent/thermal_replicates/3.npt.data
Reading data file ...
  orthogonal box = (-24.258361 -24.258361 -24.258361) to (24.258361 24.258361 24.258361)
  2 by 3 by 3 MPI processor grid
  reading atoms ...
  102500 atoms
  reading velocities ...
  102500 velocities
  scanning bonds ...
  2 = max bonds/atom
  reading bonds ...
  104500 bonds
Finding 1-2 1-3 1-4 neighbors ...
  special bond factors lj:    0        0        0       
  special bond factors coul:  0        0        0       
     4 = max # of 1-2 neighbors
     4 = max # of 1-3 neighbors
     8 = max # of 1-4 neighbors
    12 = max # of special neighbors
  special bonds CPU = 0.005 seconds
  read_data CPU = 2.070 seconds
include   "/work_bgfs/h/harshad/simulation_9/neat_polymer/config_3/system.settings"
# ATOM TYPE
mass  1  1.0 #backbone
mass  2  1.0 #endmer
mass  3  1.0 #crosslinker
mass  4  1.0 #outer shell
mass  5  1.0 #inner shell 2
mass  6  1.0 #inner-most shell
mass  7  1.0 #center bead
mass  8  1.0 #endmer post crosslinking
mass  9  1.0 #crosslinker post crosslinking

# BOND
bond_coeff * 30.0 1.50 1.0 1.0
special_bonds lj 0.0 1.0 1.0
Finding 1-2 1-3 1-4 neighbors ...
  special bond factors lj:    0        1        1       
  special bond factors coul:  0        0        0       
     4 = max # of 1-2 neighbors
     4 = max # of 1-3 neighbors
     8 = max # of 1-4 neighbors
    12 = max # of special neighbors
  special bonds CPU = 0.003 seconds

# PAIR
pair_coeff  1*9 1*9 1.0 1.0 2.5

pair_modify  shift yes
neigh_modify delay 1 check yes

# MAKE GROUPS
group polymer type 1 2 3 8 9
102500 atoms in group polymer
#group ins     type 1
#group strand  type 1 2 8
#group ends    type 2 8
#group xlinks  type 3 9
#group filler  type 4 5 6 7

# INPUTS FROM SBATCH
variable Temp          equal 1.0
variable gamma_total   equal 2.0
variable gamma_rate    equal 0.00005
variable dt            equal 0.001
variable Nfreq         equal 4000
variable Nrepeat_2     equal 100
variable Nevery_1      equal 1
variable Nrepeat_1     equal 1

variable Run           equal ${gamma_total}/${gamma_rate}/${dt}
variable Run           equal 2/${gamma_rate}/${dt}
variable Run           equal 2/5e-05/${dt}
variable Run           equal 2/5e-05/0.001

# RUN OPTIONS
run_style verlet
timestep  ${dt}
timestep  0.001

# RESTART
restart  ${Nfreq} cycle.1.restart cycle.2.restart
restart  4000 cycle.1.restart cycle.2.restart

## SAVE RESTARTS EVERY 10% EXTENSION
#variable RestFreq      equal 0.1/${gamma_rate}/${dt}
#restart  ${RestFreq} deform.*.restart
#
# COMPUTE ke/atom, pe/atom, pxx/atom, position and time-avg
compute     ke_atm          all     ke/atom
compute     p_atm           all     stress/atom NULL
compute     pe_atm          all     pe/atom
compute     ebond_atm       all     pe/atom bond
compute     posit_atm       all     property/atom x y z
fix         avg_ke_atm_1    all     ave/atom ${Nevery_1} ${Nrepeat_1} ${Nfreq} c_ke_atm
fix         avg_ke_atm_1    all     ave/atom 1 ${Nrepeat_1} ${Nfreq} c_ke_atm
fix         avg_ke_atm_1    all     ave/atom 1 1 ${Nfreq} c_ke_atm
fix         avg_ke_atm_1    all     ave/atom 1 1 4000 c_ke_atm
fix         avg_pxx_atm_1   all     ave/atom ${Nevery_1} ${Nrepeat_1} ${Nfreq} c_p_atm[*]
fix         avg_pxx_atm_1   all     ave/atom 1 ${Nrepeat_1} ${Nfreq} c_p_atm[*]
fix         avg_pxx_atm_1   all     ave/atom 1 1 ${Nfreq} c_p_atm[*]
fix         avg_pxx_atm_1   all     ave/atom 1 1 4000 c_p_atm[*]
fix         avg_pe_atm_1    all     ave/atom ${Nevery_1} ${Nrepeat_1} ${Nfreq} c_pe_atm
fix         avg_pe_atm_1    all     ave/atom 1 ${Nrepeat_1} ${Nfreq} c_pe_atm
fix         avg_pe_atm_1    all     ave/atom 1 1 ${Nfreq} c_pe_atm
fix         avg_pe_atm_1    all     ave/atom 1 1 4000 c_pe_atm
#fix         avg_posit_atm_1 all     ave/atom ${Nevery_1} ${Nrepeat_1} ${Nfreq} c_posit_atm[1] c_posit_atm[2] c_posit_atm[3]
dump        dump_1 all custom ${Nfreq} ${out_dir}traj.${Nevery_1}_${Nrepeat_1}_${Nfreq}.xyz mol type x y z f_avg_ke_atm_1 f_avg_pe_atm_1 f_avg_pxx_atm_1[*]
dump        dump_1 all custom 4000 ${out_dir}traj.${Nevery_1}_${Nrepeat_1}_${Nfreq}.xyz mol type x y z f_avg_ke_atm_1 f_avg_pe_atm_1 f_avg_pxx_atm_1[*]
dump        dump_1 all custom 4000 /shares_bgfs/dssimmons_data/harshad/deform/neat_polymer/config_3/3_deform/work_bgfs--h--harshad--simulation_9--neat_polymer--config_3--3_deform--traj.${Nevery_1}_${Nrepeat_1}_${Nfreq}.xyz mol type x y z f_avg_ke_atm_1 f_avg_pe_atm_1 f_avg_pxx_atm_1[*]
dump        dump_1 all custom 4000 /shares_bgfs/dssimmons_data/harshad/deform/neat_polymer/config_3/3_deform/work_bgfs--h--harshad--simulation_9--neat_polymer--config_3--3_deform--traj.1_${Nrepeat_1}_${Nfreq}.xyz mol type x y z f_avg_ke_atm_1 f_avg_pe_atm_1 f_avg_pxx_atm_1[*]
dump        dump_1 all custom 4000 /shares_bgfs/dssimmons_data/harshad/deform/neat_polymer/config_3/3_deform/work_bgfs--h--harshad--simulation_9--neat_polymer--config_3--3_deform--traj.1_1_${Nfreq}.xyz mol type x y z f_avg_ke_atm_1 f_avg_pe_atm_1 f_avg_pxx_atm_1[*]
dump        dump_1 all custom 4000 /shares_bgfs/dssimmons_data/harshad/deform/neat_polymer/config_3/3_deform/work_bgfs--h--harshad--simulation_9--neat_polymer--config_3--3_deform--traj.1_1_4000.xyz mol type x y z f_avg_ke_atm_1 f_avg_pe_atm_1 f_avg_pxx_atm_1[*]
dump_modify dump_1 append yes sort id

# COMPUTE a separate pe and ke for each group, AVG & SAVE
compute   pe_polymer    all reduce  sum c_pe_atm
compute   ke_polymer    all reduce  sum c_ke_atm
compute   ebond_polymer all reduce  sum c_ebond_atm
compute   pxx_polymer   all reduce  sum c_p_atm[1] c_p_atm[2] c_p_atm[3]
compute   pxy_polymer   all reduce  sum c_p_atm[4] c_p_atm[5] c_p_atm[6]
fix 		  avgEnergy     all     ave/time ${Nevery_1} ${Nrepeat_2} ${Nfreq} c_pe_polymer c_ke_polymer c_ebond_polymer c_pxy_polymer[1] c_pxy_polymer[2] c_pxy_polymer[3] file energy.avg.csv
fix 		  avgEnergy     all     ave/time 1 ${Nrepeat_2} ${Nfreq} c_pe_polymer c_ke_polymer c_ebond_polymer c_pxy_polymer[1] c_pxy_polymer[2] c_pxy_polymer[3] file energy.avg.csv
fix 		  avgEnergy     all     ave/time 1 100 ${Nfreq} c_pe_polymer c_ke_polymer c_ebond_polymer c_pxy_polymer[1] c_pxy_polymer[2] c_pxy_polymer[3] file energy.avg.csv
fix 		  avgEnergy     all     ave/time 1 100 4000 c_pe_polymer c_ke_polymer c_ebond_polymer c_pxy_polymer[1] c_pxy_polymer[2] c_pxy_polymer[3] file energy.avg.csv
fix       avgPxx_all    all     ave/time ${Nevery_1} ${Nfreq} ${Nfreq}     c_pxx_polymer[1] c_pxx_polymer[2] c_pxx_polymer[3]                                           file pxx.all.avg.csv
fix       avgPxx_all    all     ave/time 1 ${Nfreq} ${Nfreq}     c_pxx_polymer[1] c_pxx_polymer[2] c_pxx_polymer[3]                                           file pxx.all.avg.csv
fix       avgPxx_all    all     ave/time 1 4000 ${Nfreq}     c_pxx_polymer[1] c_pxx_polymer[2] c_pxx_polymer[3]                                           file pxx.all.avg.csv
fix       avgPxx_all    all     ave/time 1 4000 4000     c_pxx_polymer[1] c_pxx_polymer[2] c_pxx_polymer[3]                                           file pxx.all.avg.csv

# TIME-AVG Ly
variable Ly equal ly
fix       avgLy         all     ave/time ${Nevery_1} ${Nfreq} ${Nfreq}     v_Ly  file Ly.avg.csv
fix       avgLy         all     ave/time 1 ${Nfreq} ${Nfreq}     v_Ly  file Ly.avg.csv
fix       avgLy         all     ave/time 1 4000 ${Nfreq}     v_Ly  file Ly.avg.csv
fix       avgLy         all     ave/time 1 4000 4000     v_Ly  file Ly.avg.csv

# SIMULATION FIXES
fix  npt        all npt temp ${Temp} ${Temp} 2.0 y 0 0 5 z 0 0 5 couple yz
fix  npt        all npt temp 1 ${Temp} 2.0 y 0 0 5 z 0 0 5 couple yz
fix  npt        all npt temp 1 1 2.0 y 0 0 5 z 0 0 5 couple yz
fix  mom        all momentum 10000 linear 1 1 1
fix  deform     all deform 1 x erate ${gamma_rate} remap x units box
fix  deform     all deform 1 x erate 5e-05 remap x units box

# THERMO
variable  thermo_frq equal ${Nfreq}
variable  thermo_frq equal 4000
thermo    ${thermo_frq}
thermo    4000
thermo_style  custom step time temp press pe ke ebond etotal epair ecouple lx ly lz pxx pyy pzz pxy pxz pyz cpu cpuremain

# deform
run ${Run}
run 40000000

CITE-CITE-CITE-CITE-CITE-CITE-CITE-CITE-CITE-CITE-CITE-CITE-CITE

Your simulation uses code contributions which should be cited:

- GPU package (short-range, long-range and three-body potentials): doi:10.1016/j.cpc.2010.12.021, doi:10.1016/j.cpc.2011.10.012, doi:10.1016/j.cpc.2013.08.002, doi:10.1016/j.commatsci.2014.10.068, doi:10.1016/j.cpc.2016.10.020, doi:10.3233/APC200086

@Article{Brown11,
 author = {W. M. Brown and P. Wang and S. J. Plimpton and A. N. Tharrington},
 title = {Implementing Molecular Dynamics on Hybrid High Performance Computers---Short Range Forces},
 journal = {Comput.\ Phys.\ Commun.},
 year =    2011,
 volume =  182,
 pages =   {898--911},
 doi =     {10.1016/j.cpc.2010.12.021}
}

@Article{Brown12,
 author = {W. M. Brown and A. Kohlmeyer and S. J. Plimpton and A. N. Tharrington},
 title = {Implementing Molecular Dynamics on Hybrid High Performance Computers - Particle-Particle Particle-Mesh},
 journal = {Comput.\ Phys.\ Commun.},
 year =    2012,
 volume =  183,
 doi =     {10.1016/j.cpc.2011.10.012},
 pages =   {449--459}
}

@Article{Brown13,
 author = {W. M. Brown and Y. Masako},
 title = {Implementing Molecular Dynamics on Hybrid High Performance Computers---Three-Body Potentials},
 journal = {Comput.\ Phys.\ Commun.},
 year =    2013,
 volume =  184,
 pages =   {2785--2793},
 doi =     {10.1016/j.cpc.2013.08.002},
}

@Article{Trung15,
 author = {T. D. Nguyen and S. J. Plimpton},
 title = {Accelerating Dissipative Particle Dynamics Simulations for Soft Matter Systems},
 journal = {Comput.\ Mater.\ Sci.},
 year =    2015,
 doi =     {10.1016/j.commatsci.2014.10.068},
 volume =  100,
 pages =   {173--180}
}

@Article{Trung17,
 author = {T. D. Nguyen},
 title = {{GPU}-Accelerated {T}ersoff Potentials for Massively Parallel
    Molecular Dynamics Simulations},
 journal = {Comput.\ Phys.\ Commun.},
 year =    2017,
 doi =     {10.1016/j.cpc.2016.10.020},
 volume =  212,
 pages =   {113--122}
}

@inproceedings{Nikolskiy19,
 author = {V. Nikolskiy and V. Stegailov},
 title = {{GPU} Acceleration of Four-Site Water Models in {LAMMPS}},
 booktitle = {Proceedings of the International Conference on Parallel
    Computing (ParCo 2019), Prague, Czech Republic},
 doi =     {10.3233/APC200086},
 year =    2019
}

CITE-CITE-CITE-CITE-CITE-CITE-CITE-CITE-CITE-CITE-CITE-CITE-CITE

Generated 0 of 36 mixed pair_coeff terms from geometric mixing rule
WARNING: Inconsistent image flags (src/domain.cpp:819)
Per MPI rank memory allocation (min/avg/max) = 11.63 | 11.63 | 11.65 Mbytes
   Step          Time           Temp          Press          PotEng         KinEng         E_bond         TotEng         E_pair        Ecouple           Lx             Ly             Lz            Pxx            Pyy            Pzz            Pxy            Pxz            Pyz            CPU          CPULeft    
         0   0              0.9980913      0.040452085    16.635603      1.4971223      21.104765      18.132725     -4.4691624      0              48.516721      48.516721      48.516721      0.036575621    0.055472393    0.02930824    -0.0051542138   0.007180686    0.037796406    0              0            
      4000   4              1.0011365     -0.0061611651   16.638953      1.5016901      21.111517      18.140643     -4.4725645     -790.72983      48.526425      48.489871      48.489871     -0.02932426     0.022608322   -0.011767558   -0.011383846   -0.019320264    0.018697108    7.3618551      73611.199    
      8000   8              1.0015906      0.02725993     16.63206       1.5023712      21.10564       18.134431     -4.4735802     -133.68697      48.536128      48.493658      48.493658     -0.037904287    0.044949572    0.074734505   -0.032948482    0.00054409683  0.0020162463   14.946284      74716.479    
     12000   12             0.99891248     0.058701898    16.632259      1.4983541      21.106272      18.130613     -4.4740122      277.97535      48.545831      48.493581      48.493581      0.045824382    0.055215967    0.075065345   -0.010996451   -0.006013083   -0.0064863402   22.617505      75369.07     
     16000   16             1.002093       0.0058531408   16.638094      1.5031248      21.109783      18.141219     -4.4716888     -787.96806      48.555535      48.484471      48.484471      0.012234554    0.0072226326  -0.0018977639  -0.018044451   -0.0053034581   0.01630737     30.198315      75465.592    
     20000   20             0.99679543    -0.0555562      16.632158      1.4951786      21.1093        18.127337     -4.4771418      655.16301      48.565238      48.478345      48.478345     -0.067389001   -0.091877664   -0.0074019347  -0.022281621   -0.0031074932  -0.0049330747   37.745435      75453.128    
     24000   24             0.99742583    -0.060058151    16.634411      1.4961242      21.10677       18.130535     -4.4723591      348.30001      48.574942      48.486013      48.486013     -0.068685174   -0.058257922   -0.053231357   -0.0036699131   0.018957308    0.0095714749   45.180951      75256.406    
     28000   28             1.0005932      0.0065221746   16.639456      1.5008752      21.108153      18.140331     -4.4686975     -634.94745      48.584645      48.486051      48.486051      0.048910268   -0.044051263    0.014707519   -0.017719096    0.001370494    0.021281365    52.74594       75298.599    
     32000   32             0.99829395     0.055860071    16.633073      1.4974263      21.105766      18.1305       -4.4726927      392.97595      48.594348      48.45488       48.45488       0.027957473    0.11161629     0.028006454   -0.0087325887   0.0043550371  -0.0083353215   60.157285      75136.451    
     36000   36             1.0010277     -0.024388498    16.629867      1.5015269      21.106776      18.131394     -4.4769092      322.03327      48.604052      48.445827      48.445827      0.0073280288  -0.044285263   -0.036208259   -0.030479254   -0.00011391047 -0.035935185    67.873102      75346.686    
     40000   40             1.0051177      0.041425923    16.629381      1.5076618      21.104692      18.137043     -4.4753106     -236.44277      48.613755      48.434936      48.434936     -0.016594569    0.079889732    0.060982605    0.004240657   -0.0097501776  -0.07166708     75.518093      75442.577    
     44000   44             1.0020274      0.0090527707   16.630969      1.5030264      21.104345      18.133996     -4.473376       96.55139       48.623458      48.454883      48.454883      0.0031115183   0.047302832   -0.023256038    0.014775086   -0.039021426   -0.019344663    83.333759      75674.63     
     48000   48             1.0013614     -0.011079716    16.623977      1.5020275      21.104242      18.126004     -4.4802651      936.43296      48.633162      48.422742      48.422742     -0.031152484    0.078000327   -0.08008699     0.0058252332  -0.011954259   -0.05466427     91.065931      75797.211    
     52000   52             0.99731972     0.010439817    16.641537      1.495965       21.111875      18.137502     -4.4703375     -221.03823      48.642865      48.455989      48.455989      0.021506016    0.0065170232   0.0032964132   0.06044447     0.014733732    0.042303923    98.516704      75683.564    
     56000   56             0.99805005    -0.045836184    16.639988      1.4970605      21.107665      18.137048     -4.4676777     -154.04869      48.652568      48.467179      48.467179     -0.01715529    -0.082750341   -0.03760292     0.051798132    0.024138195   -0.012048395    106.161        75723.128    
     60000   60             0.99893538     0.027183172    16.627576      1.4983884      21.103831      18.125964     -4.4762553      1002.401       48.662272      48.43477       48.43477       0.013673154    0.055025638    0.012850724   -0.0022607386   0.00083494582  0.02746699     113.83129      75773.698    
     64000   64             0.99993495     0.077493948    16.633095      1.4998878      21.108562      18.132983     -4.4754665      303.50393      48.671975      48.413367      48.413367      0.055994103    0.11176256     0.064725176   -0.0033841345  -0.027109598   -0.042242853    121.49126      75810.548    
     68000   68             0.99905244     0.053312951    16.63978       1.498564       21.108885      18.138344     -4.4691052     -225.21103      48.681678      48.421361      48.421361      0.054714669    0.031958927    0.073265257   -0.0001078415   0.030940549    0.021103914    129.19665      75868.836    
     72000   72             1.0028434      0.019262068    16.643312      1.5042504      21.111327      18.147562     -4.4680153     -1149.2762      48.691382      48.442807      48.442807      0.025431216   -0.0056947858   0.038049774   -0.050209961   -0.011982592    0.0085468633   136.88989      75913.052    
     76000   76             1.0035047      0.035666817    16.632063      1.5052424      21.105629      18.137306     -4.4735659     -77.799276      48.701085      48.415499      48.415499     -0.014217303    0.039380066    0.081837687   -0.015904287    0.0059368826  -0.0036262818   144.44258      75877.968    
     80000   80             1.0028818     -0.01079648     16.632656      1.5043081      21.105139      18.136964     -4.4724829     -21.996963      48.710788      48.39665       48.39665       0.025316087   -0.024297569   -0.033407956   -0.011450641    0.036142492    0.05903026     152.18322      75939.43     
     84000   84             1.0021787     -0.015785627    16.632345      1.5032534      21.105844      18.135599     -4.4734982      138.51386      48.720492      48.40348       48.40348      -0.025800366    0.010164737   -0.031721252    0.024117946    0.02788445    -0.044225426    159.91076      75988.072    
     88000   88             1.0000605      0.049197295    16.628859      1.5000762      21.10374       18.128935     -4.4748805      842.26049      48.730195      48.378895      48.378895      0.019066056    0.11356073     0.014965096    0.028775034   -0.00021234556  0.0094680751   167.60154      76014.917    
     92000   92             1.0049559     -0.041481319    16.636427      1.5074191      21.103472      18.143846     -4.4670447     -665.49415      48.739898      48.403171      48.403171     -0.0072217635  -0.074871873   -0.042350321    0.0125275      0.0035796595   0.01178721     175.42273      76095.33     
     96000   96             0.99897885     0.0070126467   16.634705      1.4984537      21.108782      18.133159     -4.4740773      450.29402      48.749602      48.386571      48.386571     -0.022606464    0.014872628    0.028771775   -0.0041226678   0.0043524865  -0.017217125    182.98272      76059.817    
    100000   100            1.0011301     -0.012988224    16.633018      1.5016805      21.106231      18.134698     -4.4732132      312.7621       48.759305      48.385778      48.385778     -0.012359251   -0.058556862    0.03195144    -0.011308811    0.049683162    0.019321353    190.54244      76026.434    
    104000   104            1.0024185     -0.023278918    16.64366       1.503613       21.108652      18.147273     -4.4649913     -955.79041      48.769008      48.418606      48.418606     -0.038684669    0.04302893    -0.074181013   -0.031672919   -0.0031243072   0.033665988    198.15004      76013.403    
    108000   108            0.99914643     0.013108623    16.635905      1.498705       21.107698      18.13461      -4.4717926      362.90527      48.778712      48.374093      48.374093      0.052601675   -0.015650935    0.0023751306   0.00019677824 -0.009050046   -0.0052593246   205.78888      76012.314    
    112000   112            1.0027691      0.020491969    16.6297        1.504139       21.105585      18.133839     -4.4758852      462.29784      48.788415      48.345507      48.345507     -0.015480547    0.057075581    0.019880872    0.038735439   -0.0026405382   0.015172492    213.20385      75931.029    
    116000   116            1.0034096     -0.024792262    16.639789      1.5050998      21.105129      18.144889     -4.4653402     -649.29681      48.798118      48.397927      48.397927     -0.033153041   -0.021579408   -0.019644336   -0.0015808861  -0.0087231322   0.013318362    220.72035      75889.745    
    120000   120            0.99606652     0.040073311    16.647003      1.4940852      21.107752      18.141088     -4.4607484     -238.68001      48.807822      48.415813      48.415813      0.03065604     0.042763961    0.046799932   -0.0032643536   0.037053624   -0.022559935    228.25619      75857.141    
    124000   124            0.99723178     0.010976549    16.635131      1.4958331      21.106396      18.130964     -4.4712653      819.38365      48.817525      48.37553       48.37553       0.039174473   -0.029922607    0.023677781    0.045240257    0.035432645    0.013732332    235.98796      75889.161    
    128000   128            0.99909401     0.0042452513   16.642901      1.4986264      21.108278      18.141527     -4.4653777     -242.5427       48.827228      48.38946       48.38946      -0.012605361    0.055894975   -0.03055386    -0.020704201    0.0013874946  -0.030918449    243.45124      75835.06     
    132000   132            0.99971844    -0.065708405    16.639887      1.499563       21.109321      18.13945      -4.4694333     -8.9122946      48.836932      48.382542      48.382542     -0.057260742   -0.083016339   -0.056848134    0.0015683759   0.033025244   -0.038502521    251.00467      75811.017    
    136000   136            1.0000757     -0.0082685455   16.62925       1.5000989      21.10733       18.129349     -4.4780801      1047.2081      48.846635      48.332252      48.332252      0.018810211    0.001760292   -0.04537614    -0.0039315593   0.017088571   -0.016278764    258.73264      75839.103    
    140000   140            1.0034343      0.022794657    16.636636      1.5051368      21.107229      18.141773     -4.4705925     -205.478        48.856339      48.335494      48.335494     -0.048067916    0.076008291    0.040443597   -0.0056680064   0.004160159    0.0065641593   266.42205      75854.165    
    144000   144            1.0005888     -0.016328888    16.639613      1.5008685      21.108833      18.140482     -4.4692202     -52.483068      48.866042      48.338882      48.338882     -0.080133406    0.018720154    0.012426587   -0.00039953614 -0.029081024   -0.04273858     273.92536      75816.453    
    148000   148            0.9993117     -0.021245218    16.637085      1.4989529      21.107797      18.136038     -4.4707115      423.13242      48.875745      48.348341      48.348341     -0.0050945886   0.029481012   -0.088122076   -0.01517371     0.0045510065   0.0047234124   281.59756      75825.852    
    152000   152            0.995477       0.00066204197  16.634289      1.4932009      21.106394      18.12749      -4.4721053      1319.684       48.885449      48.330344      48.330344      0.00051500371  0.041566253   -0.040095131    0.020442922    0.0076700721   0.0091130259   289.24821      75828.702    
    156000   156            0.9936235     -0.033853535    16.635478      1.4904207      21.106415      18.125899     -4.4709369      1503.6351      48.895152      48.340499      48.340499     -0.040153332   -0.016363348   -0.045043925    0.012724443   -0.022389083    0.043425126    296.98909      75854.059    
    160000   160            0.99800074    -0.038417501    16.636175      1.4969865      21.106288      18.133161     -4.4701129      779.36204      48.904855      48.340687      48.340687      0.005956502   -0.066063579   -0.055145427   -0.028485135   -0.020741864    0.054159119    304.61038      75847.984    
    164000   164            0.9993762     -0.011816648    16.642015      1.4990497      21.107956      18.141065     -4.4659412     -9.8838262      48.914559      48.343026      48.343026     -0.020829243   -0.0023982929  -0.012222408   -0.0078280006   0.0036139232  -0.018572682    312.23838      75843.465    
    168000   168            1.0019762     -0.0021682462   16.649707      1.5029496      21.109941      18.152657     -4.4602339     -1177.3569      48.924262      48.362582      48.362582     -0.04202636     0.0082444024   0.027277219    0.023333589   -0.016536847    0.0019219159   319.88956      75844.293    
    172000   172            1.0016215     -0.027028395    16.636242      1.5024176      21.107731      18.13866      -4.4714886      277.79063      48.933965      48.318926      48.318926     -0.005455833   -0.071922166   -0.0037071879   0.026135628    0.062625603    0.0064263399   327.5807       75853.979    
    176000   176            0.99737519     0.040496015    16.635723      1.4960482      21.106397      18.131771     -4.4706736      1004.2762      48.943669      48.302189      48.302189      0.019277923    0.070070381    0.03213974     0.033662753    0.010540764   -0.012107489    335.17687      75841.386    
    180000   180            1.0007726     -0.039640942    16.63262       1.5011442      21.10501       18.133764     -4.47239        820.04823      48.953372      48.313597      48.313597     -0.035341556   -0.039368893   -0.044212378    0.045700473   -0.0039317141  -0.003594644    342.93419      75864.663    
    184000   184            1.0058863     -0.012354383    16.634893      1.5088147      21.101701      18.143708     -4.4668078     -178.60235      48.963075      48.311907      48.311907     -0.028572153   -0.035288231    0.026797236    0.0047062822  -0.0047439467  -0.022166171    350.57452      75861.278    
    188000   188            0.99904974     0.01946913     16.631403      1.49856        21.107538      18.129963     -4.476135       1250.7426      48.972779      48.266698      48.266698     -0.0002004096  -0.036586462    0.095194261    0.065642405    0.015551926   -0.015047876    358.33566      75883.294    
    192000   192            0.99943072     0.0018644344   16.631547      1.4991315      21.109203      18.130679     -4.4776556      1198.1348      48.982482      48.26795       48.26795      -0.011750584   -0.0056840219   0.023027909   -0.030207105   -0.011422994   -0.046817976    366.18071      75921.467    
    196000   196            1.0004051      0.018498151    16.636806      1.5005931      21.108505      18.137399     -4.4716993      529.88183      48.992185      48.269629      48.269629      0.04191331     0.0043997448   0.0091813995  -0.012647642   -0.018859935   -0.028221816    373.94499      75941.359    
    200000   200            0.9964635      0.051478131    16.626441      1.4946807      21.107703      18.121121     -4.4812617      2218.39        49.001889      48.219441      48.219441      0.079598414    0.022727627    0.052108352    0.02406548    -0.034950494    0.02041409     381.6689       75952.111    
    204000   204            0.99922942     0.012905258    16.629991      1.4988295      21.107441      18.12882      -4.4774505      1449.3948      49.011592      48.231831      48.231831     -0.0080239738  -0.0077523947   0.054492142   -0.0060128222  -0.056235952    0.0052838045   389.3588       75955.504    
    208000   208            1.0016386     -0.0034285237   16.635803      1.5024433      21.108888      18.138246     -4.4730848      503.52113      49.021295      48.248013      48.248013      0.0063914763  -0.014256814   -0.0024202332  -0.022108954    0.017325863    0.00087627235  396.95169      75939.913    
    212000   212            0.99933717    -0.014929232    16.633137      1.4989911      21.105383      18.132128     -4.4722461      1151.0761      49.030999      48.262126      48.262126     -0.020337099   -0.0055899116  -0.018860683   -0.002548882    0.011861987   -0.066894674    404.72437      75958.364    
    216000   216            0.99775717     0.02004057     16.627088      1.4966211      21.105862      18.123709     -4.4787739      2034.1576      49.040702      48.232626      48.232626      0.058545943   -0.0083293127   0.0099050797  -0.014018274   -0.03391215     0.037457032    412.33276      75945.586    
    220000   220            0.99896074     0.052311851    16.636466      1.4984265      21.104969      18.134892     -4.4685038      908.32964      49.050405      48.258467      48.258467      0.088460352    0.051277434    0.017197767   -0.055144585    0.026665147   -0.0073343038   420.07589      75957.358    
    224000   224            1.0008073     -0.0037516113   16.63728       1.5011963      21.109366      18.138476     -4.4720858      561.52642      49.060109      48.23362       48.23362       0.003354653    0.0080201202  -0.022629607    0.025847448    0.015254265    0.032556291    427.68872      75945.298    
    228000   228            1.0028632     -0.036471076    16.624932      1.5042801      21.109007      18.129212     -4.4840756      1531.792       49.069812      48.204208      48.204208     -0.044867922    0.023782826   -0.088328131    0.00037271598  0.013237059   -0.0077123983   435.50919      75969.611    
    232000   232            0.99837739    -0.017027327    16.628709      1.4975515      21.106244      18.126261     -4.4775347      1854.9585      49.079515      48.198481      48.198481     -0.074232844    0.041197577   -0.018046712   -0.028755003    0.070592265    0.027738199    443.10194      75953.785    
    236000   236            1.0010992     -0.070958548    16.632342      1.5016341      21.105318      18.133976     -4.4729757      1084.686       49.089219      48.225578      48.225578     -0.051219855   -0.094132352   -0.067523438    0.016657734   -0.010700038   -0.015615255    450.70665      75940.252    
    240000   240            1.0022521     -0.0010351747   16.631365      1.5033635      21.105211      18.134728     -4.4738466      1028.0694      49.098922      48.240807      48.240807      0.014649276   -0.034651135    0.016896334    0.035733837    0.041400488   -0.046484632    458.33568      75930.945    
    244000   244            0.99762038    -0.018027506    16.645237      1.496416       21.107459      18.141653     -4.4622217      338.95812      49.108625      48.272409      48.272409      0.01106658    -0.073579036    0.0084299399   0.011542435   -0.0097173123  -0.045644176    465.90759      75912.386    
    248000   248            1.0005911      0.021807268    16.643514      1.500872       21.111146      18.144386     -4.4676318      79.409201      49.118329      48.242235      48.242235     -0.0054125764   0.05195115     0.018883232    0.025126188   -0.010578384   -0.018616771    473.49311      75896.364    
    252000   252            0.9975554     -0.001864897    16.636545      1.4963185      21.106727      18.132864     -4.4701819      1280.3303      49.128032      48.215008      48.215008     -0.031298089    0.026993651   -0.0012902528  -0.011154274   -0.0066668582   0.016670278    481.27992      75912.358    
    256000   256            0.99982241    -0.043170894    16.638982      1.499719       21.106708      18.138701     -4.4677264      702.64931      49.137735      48.239098      48.239098     -0.099633355    0.0074626322  -0.037341959   -0.020217521   -0.0015606226  -0.028542794    488.99384      75916.295    
    260000   260            1.0015205      0.023601086    16.641756      1.5022662      21.106427      18.144023     -4.4646704      177.64382      49.147439      48.228967      48.228967     -0.014317725    0.026823754    0.058297229    0.011488095   -0.023899265   -0.00022376894  496.64894      75910.88     
    264000   264            0.99887587    -0.048091219    16.63856       1.4982992      21.106819      18.13686      -4.4682582      932.30027      49.157142      48.226131      48.226131     -0.043781242   -0.03400413    -0.066488285   -0.040058836    0.026164123   -0.0047331817   504.32646      75908.774    
    268000   268            0.99515977    -0.032416903    16.642034      1.4927251      21.105294      18.13476      -4.4632594      1167.6739      49.166846      48.226695      48.226695     -0.051430492   -0.045745024   -7.5192526e-05 -0.024570739    0.007867658    0.047103892    512.07822      75917.507    
    272000   272            0.99785128     0.017775854    16.631786      1.4967623      21.107487      18.128549     -4.4757004      1824.5795      49.176549      48.188446      48.188446      0.081376362    0.0055483906  -0.03359719    -0.0055171327  -0.002956886   -0.056876866    519.71989      75909.675    
    276000   276            0.99968619    -0.034224149    16.622634      1.4995147      21.103592      18.122149     -4.4809577      2500.8277      49.186252      48.159821      48.159821     -0.068749502    0.010903828   -0.044826774    0.024997619   -0.039542888   -0.056492699    527.3036       75893.508    
    280000   280            0.99814734     0.018828634    16.640511      1.4972064      21.110687      18.137717     -4.4701764      926.11087      49.195956      48.181923      48.181923      0.010774666    0.047573736   -0.0018624982  -0.022941013    0.0085170899  -0.01909574     534.80357      75865.707    
    284000   284            1.0002389      0.012988634    16.638794      1.5003437      21.112167      18.139138     -4.4733736      800.79516      49.205659      48.169014      48.169014     -0.018609121    0.033935339    0.023639684    0.024799246   -0.0094328586   3.4979609e-05  542.50902      75867.212    
    288000   288            0.99482801    -0.034091811    16.633953      1.4922275      21.107708      18.126181     -4.4737553      2149.4412      49.215362      48.158471      48.158471     -0.028599289   -0.00038017981 -0.073295963    0.029380529   -0.022073911    0.031059505    550.04854      75845.582    
    292000   292            0.99864527    -0.022163465    16.632955      1.4979533      21.107903      18.130908     -4.4749481      1685.1056      49.225066      48.151597      48.151597     -0.048160664   -0.024778624    0.0064488919   0.053547776   -0.02842152     0.030025616    557.66251      75834.463    
    296000   296            0.99937478     0.014112723    16.635104      1.4990475      21.108097      18.134151     -4.4729928      1373.2236      49.234769      48.159827      48.159827     -0.019752356    0.063984635   -0.0018941083  -0.010945567   -0.0082906883   0.0028183479   565.33361      75831.1      
    300000   300            0.9977075     -0.015036484    16.638893      1.4965467      21.110823      18.13544      -4.4719301      1261.4672      49.244472      48.148513      48.148513     -0.062387128    0.0026680709   0.014609604    0.024694529    0.0033735654  -0.0012683828   573.0537       75834.106    
    304000   304            0.99645848    -0.061459552    16.626108      1.4946731      21.105552      18.120781     -4.4794436      2784.2109      49.254176      48.128051      48.128051     -0.031397277   -0.065142045   -0.087839336    0.0086823898  -0.045173904   -0.0033042178   580.54123      75806.463    
    308000   308            0.99821996     0.089131051    16.633465      1.4973153      21.10854       18.13078      -4.4750751      1779.8331      49.263879      48.119379      48.119379      0.093504826    0.070781417    0.10310691    -0.015378372   -0.023607609   -0.017987472    588.16976      75797.514    
    312000   312            0.99988401    -0.027255603    16.631594      1.4998114      21.10463       18.131405     -4.4730367      1735.9931      49.273582      48.156928      48.156928     -0.017223094   -0.068327026    0.0037833116   0.012722601   -0.0354917     -0.00074158498  595.82257      75791.687    
    316000   316            1.0031461      0.03014563     16.635408      1.5047044      21.107061      18.140113     -4.4716522      864.12146      49.283286      48.138765      48.138765      0.011521399    0.020065962    0.058849528    0.052370984    0.01233414    -0.046233131    603.45458      75783.201    
    320000   320            1.0037128      0.033778268    16.636399      1.5055545      21.111881      18.141953     -4.4754819      695.8752       49.292989      48.118815      48.118815      0.014384382    0.025869263    0.061081159   -0.0072701456   0.011831776    0.042368713    611.04694      75769.821    
    324000   324            1.0037846     -0.018224283    16.623396      1.5056622      21.104886      18.129058     -4.4814902      2037.9637      49.302692      48.09805       48.09805      -0.030327783    0.032863374   -0.057208441    0.0032638793   0.015869973    0.0063235932   618.57006      75748.104    
    328000   328            0.99925832    -0.017502392    16.638319      1.4988729      21.106536      18.137192     -4.4682164      1224.5677      49.312396      48.124214      48.124214      0.0021178722  -0.044670475   -0.0099545734  -0.034749518   -0.0065032079  -0.014820825    626.18977      75738.416    
    332000   332            1.0007724     -0.0013855981   16.642792      1.5011439      21.110098      18.143936     -4.4673065      553.90707      49.322099      48.126931      48.126931     -0.013210578    0.038385039   -0.029331255   -0.02246043     0.0097616745  -0.001398662    633.62179      75706.353    
    336000   336            1.0004065     -0.0032808873   16.634829      1.500595       21.106017      18.135424     -4.4711887      1446.2839      49.331802      48.116994      48.116994     -0.0084081836  -0.051406842    0.049972364    0.01647155     0.0072735302  -0.0078147794   641.14435      75685.565    
    340000   340            0.99899981     0.023943309    16.628873      1.4984851      21.104883      18.127358     -4.4760101      2293.1146      49.341506      48.071737      48.071737     -0.016648283    0.082226248    0.0062519606  -0.0025855278  -0.0010300002   0.0055354924   648.74952      75674.723    
    344000   344            0.9992251      0.068629399    16.619954      1.498823       21.104232      18.118777     -4.4842778      3193.0929      49.351209      48.047092      48.047092      0.064926432    0.12144105     0.019520715    0.0190721     -0.0060698139   0.008566261    656.29129      75656.649    
    348000   348            1.0004404     -0.012200972    16.632994      1.500646       21.103963      18.13364      -4.4709688      1689.9818      49.360912      48.089059      48.089059     -0.043069725   -0.016219073    0.022685882   -0.022067088    0.038002174    0.024926739    663.94054      75651.065    
    352000   352            1.0027429      0.012269154    16.63788       1.5040997      21.110131      18.14198      -4.4722512      855.65524      49.370616      48.083552      48.083552     -0.034519058    0.031451211    0.039875308   -0.031590962   -0.010614725    0.045611262    671.50782      75636.199    
    356000   356            0.99866241     0.040958869    16.632217      1.497979       21.106593      18.130196     -4.4743759      2083.6294      49.380319      48.056001      48.056001     -0.058457811    0.10518116     0.076153253   -0.047670729   -0.062409144   -0.0029746971   679.18848      75634.124    
    360000   360            1.0039516      0.010130637    16.624123      1.5059127      21.108522      18.130036     -4.4843986      2119.9175      49.390022      48.039227      48.039227      0.043918792   -0.02206964     0.0085427595  -0.023991327    0.00078196232 -0.052799444    686.80895      75625.297    
    364000   364            0.9992861     -0.003719066    16.630111      1.4989145      21.108313      18.129026     -4.4782022      2243.6632      49.399726      48.048198      48.048198     -0.0095059474   0.0051482518  -0.0067995023  -0.0054134584  -0.0095487225  -0.0048348557   694.5362       75628.123    
    368000   368            0.99857561     0.032187283    16.635263      1.4978488      21.105018      18.133111     -4.4697549      1845.0086      49.409429      48.072699      48.072699     -0.010801108    0.043152194    0.064210762    0.016990061    0.013566132    0.062005029    701.99813      75602.147    
    372000   372            1.0020771      0.0035220082   16.639886      1.503101       21.112068      18.142987     -4.4721819      853.49742      49.419132      48.073405      48.073405     -0.025011176    0.050579733   -0.015002531    0.045978772   -0.031184548    0.022343876    709.68249      75600.263    
    376000   376            0.99743582    -0.022691448    16.635507      1.4961391      21.106605      18.131647     -4.4710975      2035.9611      49.428836      48.06033       48.06033      -0.029535451   -0.00151878    -0.037020113   -0.014592667   -0.012932109    0.07865787     717.09438      75569.541    
    380000   380            0.99751967     0.0081774493   16.635135      1.4962649      21.104447      18.1314       -4.4693124      2081.3813      49.438539      48.074198      48.074198     -0.0077690421  -0.00047305998  0.03277445    -0.0042285315  -0.042815537    0.022250248    724.63707      75552.95     
    384000   384            0.99412508     0.011307581    16.64854       1.4911731      21.105792      18.139713     -4.457252       1250.1336      49.448243      48.11077       48.11077      -0.023161994   -0.01274022     0.069824956    0.016288461   -0.021402919    0.019180435    732.33998      75553.074    
    388000   388            0.99886781     0.035406814    16.638986      1.4982871      21.106375      18.137273     -4.4673889      1520.3097      49.457946      48.060162      48.060162      0.055619171   -0.0028690629   0.053470335    0.011783779    0.0041544193   0.032790367    740.04585      75553.341    
    392000   392            1.0036194      0.023675528    16.630126      1.5054145      21.106792      18.13554      -4.476666       1718.069       49.467649      48.012737      48.012737      0.036049537   -0.0057794237   0.040756472   -0.00031337682 -0.031573607   -0.0017119694   747.44983      75522.941    
    396000   396            0.99804572     0.032456426    16.639033      1.497054       21.10986       18.136087     -4.4708278      1682.3901      49.477353      48.029121      48.029121      0.028064055    0.014172515    0.055132709    0.023134703   -0.058835047   -0.025173328    755.00379      75508.005    
    400000   400            1.0006219     -0.0016220711   16.637322      1.5009182      21.1064        18.13824      -4.4690784      1481.2764      49.487056      48.041532      48.041532     -0.01006662     0.022654142   -0.017453735   -0.0092602303   0.020177057    0.02057174     762.59414      75496.82     
    404000   404            1.0016273      0.029614351    16.646002      1.5024263      21.106185      18.148429     -4.4601823      457.35707      49.496759      48.054252      48.054252      0.0075763089   0.032705242    0.048561503   -0.0016917679   0.015710781    0.022493232    770.13385      75480.742    
    408000   408            1.0017553     -0.046982286    16.632293      1.5026183      21.104478      18.134912     -4.472185       1862.7763      49.506463      48.032229      48.032229     -0.05802458    -0.041736004   -0.041186274   -0.040450659    0.019222191    0.014353338    777.88189      75485.048    
    412000   412            0.99569695    -0.047535536    16.639856      1.4935309      21.103589      18.133386     -4.4637334      2039.1843      49.516166      48.062065      48.062065     -0.036788511   -0.039647855   -0.066170242    0.031841126   -0.019028316   -0.028087639    785.52071      75478.626    
    416000   416            0.99719064    -0.073562446    16.645316      1.4957714      21.106204      18.141087     -4.460889       1270.4141      49.525869      48.07466       48.07466      -0.06970494    -0.051143406   -0.099838993   -0.028000002    0.0081228189  -0.041177859    793.18075      75474.199    
    420000   420            0.99947532    -0.038328643    16.640155      1.4991984      21.110495      18.139353     -4.4703405      1468.5194      49.535573      48.026298      48.026298     -0.058866842   -0.032917024   -0.023202061   -0.025458986    0.014100117    0.037871275    800.89338      75474.667    
    424000   424            0.99961214    -0.038179436    16.63615       1.4994036      21.108789      18.135554     -4.4726386      1878.318       49.545276      48.002837      48.002837     -0.11437048    -0.025824051    0.025656224   -0.016897257   -0.0059878524   0.026794184    808.41741      75457.376    
    428000   428            0.99751033     0.0057018087   16.634512      1.4962509      21.105115      18.130763     -4.4706029      2389.746       49.554979      47.999898      47.999898      0.0040708862  -0.0083239906   0.021358531   -0.019649145    0.02512797    -0.018472932    815.85579      75432.349    
    432000   432            1.0029425     -0.035071844    16.629263      1.5043991      21.10717       18.133662     -4.4779071      2112.7087      49.564683      48.003354      48.003354     -0.027061062   -0.015144053   -0.063010417   -0.0017745638   0.0060557747  -0.0157781      823.40404      75417.711    
    436000   436            1.001615      -0.043416861    16.638506      1.5024078      21.109085      18.140914     -4.4705785      1389.8106      49.574386      48.005015      48.005015     -0.088488482    0.020532735   -0.062294835   -0.006596023    0.013489712   -0.00018486368  831.10167      75416.758    
    440000   440            0.99956471    -0.0096150425   16.62931       1.4993324      21.10303       18.128643     -4.4737198      2667.6152      49.584089      47.979183      47.979183     -0.04228868     0.034839424   -0.021395871    0.0074178794   0.021884481    2.6733892e-05  838.68456      75405.366    
    444000   444            0.99744768    -0.023325879    16.641513      1.4961569      21.107024      18.13767      -4.4655112      1762.937       49.593793      47.991529      47.991529      0.044842672   -0.088776248   -0.026044062   -0.013071794   -0.016644365   -0.017752576    846.39948      75405.806    
    448000   448            0.99942815    -0.022997914    16.637308      1.4991276      21.106438      18.136436     -4.4691296      1909.5024      49.603496      47.99406       47.99406      -0.042234998   -0.0013006424  -0.025458102    0.0020733041  -0.020837036   -0.0035515512   853.9944       75395.506    
    452000   452            0.99973125    -0.018113882    16.638849      1.4995822      21.107346      18.138431     -4.4684971      1725.3519      49.613199      47.984363      47.984363     -0.050273484    0.0094071984  -0.013475359    0.013473799   -0.014756306    0.034263382    861.54117      75381.041    
    456000   456            1.0013407      0.029912235    16.642184      1.5019963      21.107946      18.144181     -4.4657619      1156.557       49.622903      47.972548      47.972548      0.01886606     0.031642997    0.039227648   -0.045797471    0.038421848    0.049524852    869.21917      75378.077    
    460000   460            1.001356       0.053762693    16.632474      1.5020193      21.10544       18.134493     -4.4729661      2169.4341      49.632606      47.956485      47.956485      0.059333833    0.053229392    0.048724854   -0.026036597   -0.0097222998  -0.0015204257   876.91839      75376.855    
    464000   464            1.0003426     -0.023181126    16.633121      1.5004993      21.102963      18.13362      -4.4698422      2279.0797      49.642309      47.962045      47.962045     -0.010518182   -0.035290969   -0.023734228    0.035628872   -0.05045553     0.0043275648   884.59956      75373.983    
    468000   468            1.0055786     -0.029179377    16.634851      1.5083532      21.108546      18.143204     -4.4736951      1317.3767      49.652013      47.954468      47.954468      0.0073196187  -0.021837265   -0.073020485    0.0016495805   0.01481242     0.030396229    892.18362      75362.827    
    472000   472            0.99829953     0.031417928    16.635065      1.4974347      21.107168      18.1325       -4.4721024      2434.8238      49.661716      47.937956      47.937956      0.017185522   -0.0053600914   0.082428354   -0.011168812    0.036427194   -0.021040103    899.74317      75349.678    
    476000   476            1.0022509     -0.050795602    16.628745      1.5033616      21.104616      18.132106     -4.4758712      2495.427       49.671419      47.930537      47.930537     -0.11675729    -0.013452754   -0.022176767   -0.028220407    0.023926294    0.02967365     907.24003      75331.418    
    480000   480            0.99831058    -0.0092251205   16.637487      1.4974513      21.108958      18.134938     -4.4714705      2225.9254      49.681123      47.93681       47.93681       0.0018329427  -0.0030145439  -0.02649376     0.00024737055  0.0084953476  -0.035398834    914.91718      75328.181    
    484000   484            1.0028487      0.040096613    16.626447      1.5042584      21.104911      18.130705     -4.4784642      2679.8581      49.690826      47.905188      47.905188     -0.018737979    0.081319022    0.057708796   -0.01792267    -0.030536894    0.0076789871   922.56293      75322.307    
    488000   488            0.99929448    -0.024179328    16.627266      1.4989271      21.107144      18.126193     -4.4798782      3162.3517      49.700529      47.909847      47.909847      0.014784423   -0.078736406   -0.0085860019  -0.0090214937   0.011431044    0.030901987    930.04556      75303.197    
    492000   492            1.0006146     -0.070273041    16.636192      1.5009073      21.107144      18.137099     -4.470952       2065.1717      49.710233      47.934434      47.934434     -0.074204339   -0.048946889   -0.087667896   -0.047609959    0.018268792    0.025725627    937.60881      75290.75     
    496000   496            1.0034146      0.068701283    16.635419      1.5051072      21.11051       18.140526     -4.4750911      1734.2988      49.719936      47.8971        47.8971        0.044860708    0.073811316    0.087431825    0.0062326741   0.04013618    -0.027325527    945.14514      75276.237    
    500000   500            1.0041891      0.020124953    16.627239      1.506269       21.107205      18.133508     -4.4799659      2473.5778      49.729639      47.903512      47.903512      0.0060481326   0.025132753    0.029193972    0.016556584    0.013799262    0.0044994533   952.7287       75265.568    
    504000   504            0.99906776     0.035088702    16.63134       1.498587       21.108674      18.129927     -4.4773337      2861.0428      49.739343      47.890768      47.890768      0.0091991007   0.014428701    0.081638304    0.016297624   -0.0068491837  -0.0048016461   960.49731      75269.448    
    508000   508            1.0017193      0.0068870372   16.642637      1.5025643      21.108651      18.145201     -4.4660137      1315.8037      49.749046      47.90465       47.90465       0.049172357    0.010686143   -0.039197388   -0.0004417963   0.0020853111  -0.0099899404   968.05941      75257.091    
    512000   512            1.00367        0.028471226    16.632544      1.5054903      21.106811      18.138034     -4.4742673      2069.9194      49.75875       47.886552      47.886552      0.033198947   -0.079117822    0.13133255    -0.037678313   -0.0063911204   0.0051145641   975.73473      75253.541    
    516000   516            0.99834105    -0.024924216    16.637123      1.497497       21.107565      18.13462      -4.470442       2439.9989      49.768453      47.889798      47.889798     -0.028720106   -0.049581937    0.0035293944   0.004576891    0.01522143    -0.039775192    983.26246      75238.633    
    520000   520            1.0038366     -0.06578104     16.63471       1.5057402      21.107         18.14045      -4.4722899      1862.4648      49.778156      47.911403      47.911403     -0.080906363   -0.10858717    -0.0078495823   0.038107323   -0.027311983   -0.030749064    990.70883      75217.663    
    524000   524            0.99893082     0.062438498    16.646742      1.4983816      21.107284      18.145124     -4.4605415      1403.8343      49.78786       47.908522      47.908522      0.040834058    0.079185176    0.06729626    -0.022872723   -0.013538038    0.026508622    998.38063      75213.882    
    528000   528            0.9998323      0.023817332    16.634182      1.4997338      21.108154      18.133916     -4.4739725      2572.2923      49.797563      47.88544       47.88544      -0.023021903    0.081344812    0.013129086   -0.0016882342  -0.024683199   -0.00090603153  1005.8392      75194.099    
    532000   532            0.99699508    -0.049923696    16.635479      1.495478       21.105869      18.130957     -4.4703905      2895.8201      49.807266      47.893205      47.893205     -0.077216858   -0.042689575   -0.029864654   -0.012135139   -0.028779242    0.0048225885   1013.3125      75175.598    
    536000   536            1.0021542     -0.047285544    16.640636      1.5032167      21.107147      18.143853     -4.4665104      1594.5721      49.81697       47.899047      47.899047     -0.082768108   -0.03879251    -0.020296015   -0.023757001    0.0045426563   0.018165409    1020.8376      75161.071    
    540000   540            0.99871502    -0.011474039    16.641459      1.4980579      21.109951      18.139517     -4.4684922      2059.6617      49.826673      47.888995      47.888995      0.0033503401  -0.022852238   -0.014920221   -0.0024084236  -0.0063132618   0.040187249    1028.5998      75163.975    
    544000   544            0.99791179    -0.056004316    16.62772       1.4968531      21.102354      18.124573     -4.4746346      3611.0648      49.836376      47.853412      47.853412     -0.09792781    -0.0085966005  -0.061488537   -0.036341404   -0.0037233557  -0.019811179    1036.2542      75158.91     
    548000   548            1.0010562     -0.019597771    16.633335      1.5015697      21.108296      18.134904     -4.4749617      2572.1753      49.84608       47.868753      47.868753      0.016786821   -0.041875603   -0.033704532    0.059695632   -0.032612432    0.05080034     1044.0156      75161.504    
    552000   552            0.9992338      0.0052553675   16.640283      1.4988361      21.109094      18.139119     -4.4688112      2160.6114      49.855783      47.879191      47.879191      0.014845654   -0.011891071    0.01281152     0.0035293048   0.026635321    0.0016824795   1051.516       75145.298    
    556000   556            1.0002539      0.016256656    16.637403      1.5003661      21.108885      18.137769     -4.4714822      2319.4501      49.865486      47.850377      47.850377      0.011889884    0.031294906    0.0055851774   0.0089222598  -0.016326084    0.021328989    1059.2014      75142.338    
    560000   560            0.9982906      0.00088178406  16.62735       1.4974213      21.106354      18.124771     -4.4790044      3671.5746      49.87519       47.807429      47.807429      0.020664658    0.022039787   -0.040059092   -0.044360531   -0.019079219   -0.00031685274  1066.8114      75134.005    
    564000   564            1.002248       0.010397257    16.632791      1.5033574      21.105783      18.136148     -4.472992       2525.5803      49.884893      47.835822      47.835822      0.045281793    0.018423466   -0.032513488    0.021206621   -0.072414934   -0.0046933877   1074.4233      75125.81     
    568000   568            1.0035015      0.011734598    16.634969      1.5052376      21.106949      18.140207     -4.4719795      2130.0796      49.894596      47.828297      47.828297      0.0075566005   0.0019137856   0.025733409    0.048029582   -0.025126983   -0.052008518    1082.1361      75124.631    
    572000   572            0.99854009     0.0027523192   16.632124      1.4977955      21.103152      18.12992      -4.4710275      3204.8791      49.9043        47.823125      47.823125     -0.0048995431  -0.01924222     0.03239872    -0.011104659    0.012915676    0.0011328371   1089.694       75112.683    
    576000   576            1.0008574      0.056454973    16.626621      1.5012714      21.108319      18.127893     -4.4816973      3432.706       49.914003      47.792527      47.792527      0.027830874    0.10862776     0.032906289   -0.0064089133   0.059786679    0.04044354     1097.3249      75105.793    
    580000   580            1.0029626      0.0045846558   16.635586      1.5044292      21.10716       18.140015     -4.4715743      2210.3329      49.923706      47.81938       47.81938      -0.012431646    0.038457181   -0.012271567   -0.030901834   -0.010597575    0.011303816    1104.9041      75095.378    
    584000   584            1.0008432     -0.019945301    16.634124      1.5012501      21.104267      18.135374     -4.4701433      2706.5627      49.93341       47.829489      47.829489     -0.02172838    -0.035918681   -0.0021888411  -0.039441884    0.025103294   -0.02076085     1112.3704      75077.383    
    588000   588            1.0014751      0.04510683     16.623607      1.502198       21.107524      18.125805     -4.4839165      3707.1035      49.943113      47.757377      47.757377      0.010480061    0.045086627    0.079753801    0.018013239    0.01221029     0.0025045228   1119.9761      75068.874    
    592000   592            1.0008115     -0.030198463    16.625115      1.5012026      21.105816      18.126318     -4.4807007      3674.7503      49.952816      47.771886      47.771886     -0.014237249   -0.046175561   -0.030182579    0.020764214    0.0095910999   0.002186185    1127.6073      75062.075    
    596000   596            1.0013908      0.0094107574   16.632422      1.5020716      21.107027      18.134493     -4.4746055      2856.9394      49.96252       47.797185      47.797185     -0.042368401    0.045714182    0.024886492   -0.038719851    0.014991062   -0.038629405    1135.1135      75046.998    
    600000   600            1.0051074     -0.045079266    16.627557      1.5076463      21.103396      18.135203     -4.4758388      2804.0932      49.972223      47.796178      47.796178     -0.0080285004  -0.079352515   -0.047856784    0.023492562    0.0015469742  -0.011861689    1142.7074      75037.786    
    604000   604            1.0012895     -0.0030394729   16.62476       1.5019195      21.109111      18.126679     -4.4843514      3697.8585      49.981926      47.763638      47.763638     -0.023245924   -0.015661578    0.029789083   -0.024464327   -0.012778982    0.013852065    1150.2757      75026.92     
    608000   608            1.0031092     -0.017223138    16.632525      1.5046492      21.108927      18.137175     -4.4764012      2642.3372      49.99163       47.771363      47.771363     -0.032464918   -0.019364496    0.00015999837  0.020135432   -0.027458015    0.059981213    1157.9643      75023.895    
    612000   612            1.0053214     -0.011491161    16.635522      1.5079674      21.111793      18.14349      -4.4762711      2015.2669      50.001333      47.764997      47.764997     -0.0052347034  -0.036224243    0.0069854618  -0.0041917722   0.0027987539   0.0087376417   1165.5693      75015.43     
    616000   616            0.9986047      0.010009886    16.63613       1.4978924      21.108232      18.134023     -4.4721014      3005.4134      50.011036      47.786394      47.786394     -0.0099456964   0.035809084    0.0041662705   0.020036881    0.0025559013   0.010112325    1173.1413      75004.864    
    620000   620            0.99559776     0.0064103692   16.636468      1.4933821      21.107444      18.12985      -4.4709752      3453.1336      50.02074       47.776786      47.776786      0.037018438   -0.044429354    0.026642024   -0.015861224    0.0046565296  -0.0053272423   1180.6789      74992.151    
    624000   624            1.0016866      0.030707428    16.641499      1.5025152      21.109799      18.144014     -4.4682997      2022.0882      50.030443      47.776532      47.776532      0.020217372    0.0123523      0.059552611    0.039832631   -0.040470093    0.0033966953   1188.169       74976.51     
    628000   628            0.99993227     0.031502043    16.637253      1.4998838      21.105729      18.137137     -4.4684759      2747.2641      50.040147      47.778916      47.778916      0.01684445     0.025850705    0.051810974    0.0002185126  -0.0080599375  -0.0078868656   1195.8614      74973.653    
    632000   632            1.0028999      0.016536311    16.630952      1.5043351      21.106582      18.135287     -4.4756307      2957.1123      50.04985       47.764227      47.764227      0.017728413   -0.0014060654   0.033286584    0.06946168    -0.043345707   -0.022704627    1203.5389      74969.811    
    636000   636            0.99648554    -0.028226184    16.630108      1.4947137      21.104136      18.124822     -4.474028       4050.0754      50.059553      47.762318      47.762318     -0.031458684   -0.055682347    0.0024624791  -0.012700901    0.030333887    0.01539804     1211.2475      74967.844    
    640000   640            0.99792853    -0.065174496    16.629127      1.4968782      21.104211      18.126005     -4.4750836      3948.6615      50.069257      47.745396      47.745396     -0.087509513   -0.064175839   -0.043838135   -0.021638012   -0.047948824   -0.034112896    1218.8427      74958.823    
    644000   644            0.99999755    -0.022983964    16.637012      1.4999817      21.105128      18.136994     -4.4681155      2842.3717      50.07896       47.754686      47.754686     -0.014838106    0.010362807   -0.064476592   -0.027458919    0.012340482   -0.017015741    1226.4697      74951.771    
    648000   648            1.0026402      0.0065618169   16.641281      1.5039457      21.108157      18.145227     -4.466876       2018.892       50.088663      47.736272      47.736272     -0.0064173958   0.036881476   -0.010778629    0.03139156    -0.0058245747   0.03386547     1234.0363      74941.047    
    652000   652            0.99966076    -0.036370073    16.644059      1.4994765      21.110121      18.143536     -4.4660614      2212.2697      50.098367      47.755403      47.755403     -0.053777522   -0.045466105   -0.0098665912   0.0004449752   0.01682735    -0.049541763    1241.5858      74929.324    
    656000   656            0.99804881    -0.03103707     16.636072      1.4970586      21.105755      18.133131     -4.4696831      3298.7177      50.10807       47.746457      47.746457     -0.043310456   -0.015451224   -0.034349531   -0.027359674    0.0052472994   0.031291632    1249.0512      74912.608    
    660000   660            1.0012987     -0.0029214052   16.638307      1.5019334      21.10656       18.14024      -4.468253       2590.6558      50.117773      47.746196      47.746196     -0.0032002877   0.018745054   -0.024308982   -0.0041949068   0.012742631    0.020602335    1256.7174      74907.971    
    664000   664            1.0010456     -0.022152863    16.641951      1.5015538      21.104253      18.143504     -4.462302       2275.7197      50.127477      47.764358      47.764358     -0.02173152    -0.063271459    0.01854439     0.0046007879  -0.019316926    0.069184389    1264.236       74894.557    
    668000   668            0.99694347     0.0070767979   16.636604      1.4954006      21.106862      18.132005     -4.4702579      3474.652       50.13718       47.722886      47.722886      0.014644374    0.017479469   -0.01089345    -0.0095871673  -0.0072382005   0.010139726    1271.8038      74884.113    
    672000   672            1.0017511     -0.016205791    16.631076      1.502612       21.103297      18.133688     -4.4722203      3321.8946      50.146883      47.71006       47.71006      -0.0077698673  -0.045830983    0.0049834779  -0.050292855   -0.018040265   -0.010693227    1279.5804      74885.923    
    676000   676            1.0015121     -0.024530865    16.636333      1.5022535      21.106698      18.138586     -4.4703652      2840.3192      50.156587      47.726511      47.726511     -0.014340973    0.0098440614  -0.069095685    0.03792886     0.0033795379  -0.0034000359   1287.0871      74871.912    
    680000   680            0.99896169    -0.052328266    16.648398      1.4984279      21.106181      18.146826     -4.4577828      2015.8545      50.16629       47.771458      47.771458     -0.023738778   -0.054366863   -0.078879158    0.0013539886  -0.066330309   -0.032343332    1294.5082      74853.035    
    684000   684            0.99815946    -0.022940099    16.634711      1.4972246      21.104461      18.131935     -4.4697496      3561.976       50.175993      47.708785      47.708785     -0.015334623   -0.015319923   -0.038165751    0.030717986    0.01030146    -0.024298142    1302.0157      74839.252    
    688000   688            0.99921958     0.014192317    16.634861      1.4988147      21.108937      18.133676     -4.4740763      3403.9546      50.185697      47.686285      47.686285     -0.001302769    0.06689781    -0.023018091    0.028135817    0.019751087    0.026038898    1309.6294      74831.613    
    692000   692            1.0025814      0.022836723    16.641815      1.5038575      21.108469      18.145672     -4.4666545      2194.4784      50.1954        47.689271      47.689271     -0.011286636    0.020284252    0.059512552   -0.015671643    0.0051192964  -0.0096398593   1317.3782      74831.652    
    696000   696            1.0027702      0.0078400654   16.631535      1.5041406      21.103564      18.135676     -4.472029       3239.0391      50.205103      47.688755      47.688755      0.00098227718  0.028792937   -0.0062550179  -0.0047437486  -0.031433037   -0.001818901    1325.0045      74824.679    
    700000   700            0.99537578    -0.0029250096   16.637771      1.4930491      21.103099      18.13082      -4.4653287      3757.2175      50.214807      47.7079        47.7079        0.02083133    -0.0032859965  -0.026320363    0.013988067   -0.0067111333   0.072125918    1332.4726      74808.819    
    704000   704            1.0009813     -0.063252935    16.638952      1.5014573      21.105252      18.14041      -4.4662996      2794.4755      50.22451       47.726632      47.726632     -0.064498124   -0.089591387   -0.035669293    0.0016233495   0.010976854   -0.0037557597   1339.8826      74789.813    
    708000   708            1.0010893     -0.026441723    16.645676      1.5016193      21.109706      18.147296     -4.4640296      2108.9525      50.234213      47.710772      47.710772     -0.056723205   -0.010836217   -0.011765748    0.011214009   -0.018056676   -0.017877487    1347.4797      74781.32     
    712000   712            0.99496667    -0.071567313    16.643837      1.4924354      21.109482      18.136272     -4.4656455      3259.004       50.243917      47.693942      47.693942     -0.016724594   -0.09317589    -0.10480145    -0.0091907641  -0.0044533529   0.0039201462   1355.1433      74776.504    
    716000   716            1.0006276      0.021368167    16.634679      1.5009267      21.106445      18.135606     -4.4717662      3347.1951      50.25362       47.67024       47.67024      -0.014777388    0.034058514    0.044823374   -0.022968847   -0.05562053    -0.043434163    1362.7643      74769.319    
    720000   720            1.0058035     -0.012680972    16.640231      1.5086905      21.108792      18.148921     -4.4685609      2002.7006      50.263323      47.657283      47.657283      0.020593116   -0.035633122   -0.023002909    0.024568666   -0.04067233    -0.044311259    1370.4031      74763.105    
    724000   724            1.0018059     -0.012453255    16.635709      1.5026942      21.10529       18.138403     -4.4695809      3101.0051      50.273027      47.662235      47.662235     -0.0080438699   0.005610054   -0.034925948    0.010283857    0.039486143    0.020816341    1377.9199      74750.253    
    728000   728            1.000099       0.042136215    16.632535      1.5001339      21.10427       18.132669     -4.4717346      3708.7546      50.28273       47.64253       47.64253       0.046138762    0.019040594    0.06122929    -0.03691482    -0.031947754   -0.017569771    1385.571       74744.705    
    732000   732            1.0014324      0.037805046    16.637172      1.502134       21.108104      18.139306     -4.4709322      3048.0851      50.292433      47.643241      47.643241      0.071284571   -0.017955988    0.060086554    0.011235822    0.012655835    0.0057088144   1393.3155      74744.143    
    736000   736            0.99773711     0.0014955197   16.646098      1.4965911      21.105638      18.142689     -4.4595399      2721.084       50.302137      47.690032      47.690032      0.016295712   -0.017293754    0.0054846008   0.027974817   -0.012473334    0.032871317    1401.0216      74741.458    
    740000   740            0.99911773    -0.026085262    16.630657      1.498662       21.10057       18.129319     -4.4699128      4111.2387      50.31184       47.65198       47.65198      -0.069572697    0.033001296   -0.041684384    0.048008674   -0.041556735    0.017512048    1408.5458      74729.066    
    744000   744            1.0010199      0.014157584    16.636655      1.5015151      21.106035      18.13817      -4.4693802      3224.2025      50.321544      47.645633      47.645633      0.052902596    0.0059568291  -0.016386674    0.01486158    -0.037359549   -0.0028609304   1416.1818      74722.626    
    748000   748            0.99721316    -0.085166005    16.641295      1.4958051      21.109266      18.1371       -4.4679709      3353.8432      50.331247      47.659075      47.659075     -0.021783539   -0.075766451   -0.15794802     0.012108412    0.018997129   -0.02286866     1423.6905      74709.491    
    752000   752            0.9937006     -0.077236164    16.63335       1.4905364      21.106205      18.123886     -4.4728558      4728.0856      50.34095       47.652023      47.652023     -0.070226483   -0.038206565   -0.12327544    -0.047513652    0.016941325    0.017332638    1431.1995      74696.435    
    756000   756            0.99768328     0.0029771829   16.634945      1.4965103      21.106991      18.131455     -4.4720464      3972.4999      50.350654      47.628765      47.628765     -0.001302343   -0.032711475    0.042945367    0.038596009    0.016473642   -0.035250855    1438.7129      74683.663    
    760000   760            0.99937408     0.017588519    16.641523      1.4990465      21.104088      18.140569     -4.462565       3058.5194      50.360357      47.641074      47.641074     -0.034307179    0.024038743    0.063033992   -0.025916272    0.025448978   -0.0056080685   1446.2235      74670.805    
    764000   764            0.99891551    -0.01011811     16.641503      1.4983586      21.106825      18.139862     -4.4653219      3151.2393      50.37006       47.638426      47.638426      0.041522952    0.01526744    -0.087144721    0.0026132597  -0.0040031807  -0.021107638    1453.6721      74654.813    
    768000   768            1.000927      -0.071621947    16.633837      1.5013758      21.105103      18.135212     -4.4712663      3647.6804      50.379764      47.624261      47.624261     -0.053708936   -0.056836035   -0.10432087     0.02752973     0.023906813    0.063649845    1461.3436      74650.305    
    772000   772            0.99676666    -0.0080700373   16.633568      1.4951354      21.10678       18.128703     -4.4732119      4334.9763      50.389467      47.612874      47.612874     -0.056923143    0.027015855    0.0056971758  -0.0040821166   0.043875734   -0.022148438    1469.0515      74647.605    
    776000   776            1.0002752     -0.06132294     16.641087      1.5003982      21.108348      18.141486     -4.4672606      3044.9211      50.39917       47.64587       47.64587      -0.1362506     -0.026765183   -0.020953033   -0.00067816755 -0.015824333   -0.0062092493   1476.6156      74637.59     
    780000   780            1.0004887     -0.078669419    16.642593      1.5007184      21.108413      18.143312     -4.4658202      2877.9638      50.408874      47.629755      47.629755     -0.070576322   -0.088006407   -0.077425528   -0.0085154941  -0.024377101    0.00215784     1484.178       74627.514    
    784000   784            0.99930051    -0.0067846619   16.633776      1.4989361      21.107934      18.132712     -4.4741585      3984.4189      50.418577      47.588896      47.588896     -0.0023798965   0.006795759   -0.024769848   -0.0054258399  -0.0056757469   0.021279571    1491.6737      74614.126    
    788000   788            1.0003176      0.018061243    16.633119      1.5004618      21.106915      18.133581     -4.4737966      3915.2173      50.42828       47.577189      47.577189     -0.0012178602   0.00023156083  0.055170029   -0.00049051246 -0.0045323434  -0.0020334548   1499.2458      74604.603    
    792000   792            1.0003009     -0.060564734    16.632899      1.5004366      21.106011      18.133335     -4.4731123      3959.8601      50.437984      47.5908        47.5908       -0.080094829   -0.12116508     0.019565704    0.012396036   -0.043647641    0.021565149    1506.8005      74594.234    
    796000   796            0.99620831     0.0031177249   16.644575      1.4942979      21.107234      18.138872     -4.4626597      3412.3575      50.447687      47.60423       47.60423       0.0083617822  -0.023401005    0.024392397   -0.019490422   -0.023867393   -0.027785663    1514.3225      74582.286    
    800000   800            1.0013386     -0.037399628    16.643416      1.5019933      21.106295      18.145409     -4.4628792      2762.4605      50.45739       47.607305      47.607305     -0.035722355   -0.085344632    0.0088681021   0.038613343   -0.0070439618  -0.0077545902   1522.0118      74578.579    
    804000   804            0.99881094    -0.034360647    16.633967      1.4982018      21.106058      18.132169     -4.4720905      4139.7428      50.467094      47.573744      47.573744     -0.04683362    -0.01273859    -0.043509732   -0.023734262   -0.017217238   -0.023820009    1529.6879      74574.187    
    808000   808            1.0041828      0.021984106    16.63114       1.5062595      21.105607      18.1374       -4.4744663      3623.3367      50.476797      47.543302      47.543302      0.052765697   -0.0065343945   0.019721015   -0.0018386869  -0.00056506312  0.014115689    1537.3263      74567.938    
    812000   812            1.0024111     -0.0017932353   16.640169      1.503602       21.106622      18.143771     -4.4664526      2990.2804      50.4865        47.564676      47.564676      0.037989232   -0.0087591023  -0.034609836   -0.026695701   -0.02445582    -0.0095200435   1544.7141      74549.579    
    816000   816            0.99856702     0.087348819    16.638378      1.4978359      21.108386      18.136214     -4.4700074      3784.6243      50.496204      47.553621      47.553621      0.068351309    0.085586634    0.10810851    -0.0026792408  -0.021232567   -0.0046941331   1552.2978      74540.73     
    820000   820            1.0009048      0.038864903    16.628975      1.5013426      21.101871      18.130317     -4.4728957      4408.8346      50.505907      47.525774      47.525774     -0.021525893    0.05649399     0.081626613    0.006006049   -0.0047161754  -0.0019058388   1559.8761      74531.642    
    824000   824            1.004022       0.0028108345   16.639137      1.5060183      21.108143      18.145155     -4.4690058      2907.9526      50.51561       47.545237      47.545237     -0.024186763    0.011453152    0.021166115   -0.016050389   -0.066307097    0.0029590982   1567.5591      74527.541    
    828000   828            0.9991264     -0.0075228825   16.63905       1.498675       21.106127      18.137725     -4.467077       3689.7474      50.525314      47.543463      47.543463     -0.036905451   -0.011709331    0.026046135   -0.0069353399  -0.016378716   -0.05149671     1575.1879      74520.847    
    832000   832            0.99643512    -0.030179285    16.636185      1.4946381      21.106201      18.130823     -4.4700161      4417.0037      50.535017      47.556407      47.556407     -0.042934336    0.0044338231  -0.052037341    0.0081118387  -0.040618921   -0.04547487     1582.774       74512.131    
    836000   836            0.9992553     -0.01716291     16.638222      1.4988683      21.104831      18.13709      -4.4666092      3794.5225      50.54472       47.554981      47.554981     -0.073090513    0.016688503    0.0049132779   0.021687717   -0.037127061   -0.0040689072   1590.398       74505.198    
    840000   840            0.99635016     0.0013937199   16.639869      1.4945107      21.106313      18.13438      -4.4664442      4092.3616      50.554424      47.543298      47.543298     -0.036847084   -0.022300441    0.063328685   -0.02547803    -0.040906594   -0.019120434    1598.0765      74500.804    
    844000   844            0.99246107    -0.07016273     16.635805      1.4886771      21.105007      18.124482     -4.4692023      5126.8803      50.564127      47.534069      47.534069     -0.10695981    -0.057770332   -0.045758051   -0.0028278808   0.0017181963  -0.064616071    1605.6842      74493.095    
    848000   848            0.99719083     0.029924806    16.643121      1.4957717      21.111406      18.138892     -4.4682857      3670.1312      50.57383       47.536074      47.536074      0.064161913   -0.0036274677   0.029239973   -0.010668062   -0.02925855     0.002842941    1613.2605      74483.934    
    852000   852            1.0004004      0.013856305    16.635035      1.500586       21.107308      18.135621     -4.4722727      4024.7827      50.583534      47.500413      47.500413     -0.050344482    0.024639441    0.067273957    0.008182708    0.0029384424  -0.068589896    1620.8458      74475.202    
    856000   856            0.99896126     0.0066053421   16.628868      1.4984273      21.102253      18.127296     -4.4733849      4897.8146      50.593237      47.49372       47.49372      -0.024408152   -0.00097103103  0.045195209   -0.01700367     0.041828915    0.027518734    1628.4637      74467.969    
    860000   860            1.0018889     -0.0085523759   16.639971      1.5028187      21.108233      18.14279      -4.4682616      3329.679       50.60294       47.509777      47.509777     -0.0087018881   0.027791444   -0.044746683   -0.017903529    0.0016374831   0.019287346    1636.0332      74458.532    
    864000   864            0.99758168     0.048773381    16.636557      1.4963579      21.105765      18.132915     -4.4692084      4361.4729      50.612644      47.49772       47.49772       0.086946673    0.024424341    0.034949128   -0.00066555602 -0.042215396   -0.025497254    1643.6594      74451.683    
    868000   868            0.99658884    -0.04429736     16.63921       1.4948687      21.108082      18.134078     -4.4688721      4261.9933      50.622347      47.503118      47.503118     -0.070217666    0.0048281733  -0.067502588   -0.052499025    0.023838393   -0.012590056    1651.3282      74446.746    
    872000   872            1.0004346      0.0097239155   16.644995      1.5006373      21.107355      18.145633     -4.4623602      3097.5334      50.632051      47.511955      47.511955     -0.0059825249   0.048003115   -0.012848844   -0.0031482815  -0.031562414   -0.044517771    1658.9262      74438.605    
[...]
  39768000   39768          0.99548018    -0.13054553     16.644474      1.4932057      21.104627      18.137679     -4.4601539      126215.45      144.98737      28.098162      28.098162     -0.40201726     0.011986571   -0.0016059063  -0.016352424    0.011178551    0.03481475     77749.394      453.57723    
  39772000   39772          0.99524275    -0.1619799      16.637046      1.4928496      21.105364      18.129895     -4.4683177      127023.05      144.99707      28.09179       28.09179      -0.49134051     0.0024263391   0.0029744675  -0.023457835   -0.017511103   -0.054678434    77758.162      445.76237    
  39776000   39776          0.99994534    -0.077062069    16.646266      1.4999034      21.109473      18.146169     -4.4632075      125364.87      145.00678      28.096461      28.096461     -0.26430713     0.02683218     0.0062887485  -0.0028854759  -0.025380307    0.050877886    77766.976      437.94757    
  39780000   39780          0.99935553    -0.14564746     16.652623      1.4990187      21.111006      18.151642     -4.458383       124813.97      145.01648      28.098873      28.098873     -0.40614831    -0.015565226   -0.015228838   -0.0015224264   0.012145815    0.038894259    77776.021      430.13385    
  39784000   39784          0.99981125    -0.11495083     16.64485       1.4997022      21.106835      18.144553     -4.4619845      125550.16      145.02618      28.096269      28.096269     -0.34332241     0.0069227628  -0.008452842    0.0085850355  -0.029179681    0.00041620041  77785.074      422.31993    
  39788000   39788          1.0000395     -0.10979855     16.639415      1.5000446      21.105462      18.139459     -4.4660469      126081.94      145.03589      28.079864      28.079864     -0.36697661    -0.010642294    0.048223262    0.022308994    0.020987505   -0.024304201    77794.045      414.50532    
  39792000   39792          1.0014035     -0.13217609     16.653719      1.5020906      21.111199      18.15581      -4.4574802      124415.48      145.04559      28.1003        28.1003       -0.33566343    -0.028655776   -0.03220907    -0.016371714    0.024605171    0.0096542409   77802.919      406.68997    
  39796000   39796          0.99979798    -0.10276458     16.650427      1.4996823      21.109934      18.15011      -4.4595071      125009.51      145.05529      28.084198      28.084198     -0.37565868     0.037242169    0.030122761   -0.016706498   -0.050609702   -0.0021739888   77811.825      398.87457    
  39800000   39800          0.99813588    -0.12706525     16.646987      1.4971892      21.108956      18.144176     -4.4619696      125627.48      145.065        28.082761      28.082761     -0.3574628     -0.0030676005  -0.020665352   -0.009635269    0.024356826   -0.025659339    77820.511      391.05785    
  39804000   39804          1.0005895     -0.13019145     16.645975      1.5008696      21.106922      18.146845     -4.4609462      125363.5       145.0747       28.095422      28.095422     -0.3366579     -0.032699082   -0.02121738    -0.023320542    0.0044744924  -0.03445424     77829.27       383.24131    
  39808000   39808          1.0021021     -0.14756657     16.659151      1.5031385      21.111719      18.162289     -4.4525681      123790.4       145.0844       28.105752      28.105752     -0.42274776    -0.057603675    0.03765171    -0.0070584412   0.0070117479  -0.010186965    77838.195      375.42538    
  39812000   39812          1.0009008     -0.130566       16.65132       1.5013365      21.105032      18.152657     -4.4537118      124787.1       145.09411      28.106175      28.106175     -0.41899874     0.047955728   -0.020654988   -0.036426612   -0.0074723832  -0.044863782    77847.215      367.60968    
  39816000   39816          0.99896541    -0.16604962     16.644631      1.4984335      21.10585       18.143064     -4.4612189      125779.93      145.10381      28.091111      28.091111     -0.41713442    -0.057546037   -0.023468402   -0.028704262    0.008815681   -0.025767318    77856.052      359.79288    
  39820000   39820          0.9987992     -0.098775841    16.649825      1.4981842      21.107483      18.148009     -4.4576581      125282.92      145.11351      28.089674      28.089674     -0.38383873     0.039078112    0.048433097   -0.015352193   -0.00080585879 -0.0067076286   77864.718      351.97512    
  39824000   39824          1.0020156     -0.17420079     16.655352      1.5030087      21.110195      18.158361     -4.4548432      124231.84      145.12322      28.110294      28.110294     -0.43010774    -0.060467474   -0.032027147    0.0026911202  -0.038525626   -0.041513679    77873.482      344.15761    
  39828000   39828          1.0018257     -0.13534891     16.642488      1.502724       21.105709      18.145212     -4.4632207      125589.05      145.13292      28.078928      28.078928     -0.3804201      0.0031490004  -0.028775636    0.014586164   -0.051101479   -0.0075699812   77882.218      336.3398     
  39832000   39832          1.0023109     -0.093964304    16.642759      1.5034517      21.106628      18.14621      -4.4638697      125496.33      145.14262      28.076704      28.076704     -0.31587699    -0.015379898    0.049363975    0.007553795    0.0093279388   0.0082139964   77890.987      328.52194    
  39836000   39836          1.0070105     -0.076902498    16.647651      1.510501       21.10673       18.158152     -4.459079       124281.79      145.15233      28.080148      28.080148     -0.28202057    -0.0079776144   0.059290688    0.04217673    -0.009153654    0.0099763835   77899.685      320.70359    
  39840000   39840          1.0012369     -0.11719575     16.641719      1.5018407      21.10522       18.14356      -4.4635006      125786.96      145.16203      28.066929      28.066929     -0.36721292     0.009910706    0.0057149523  -0.020233813   -0.0005483326  -0.007552013    77908.6        312.88595    
  39844000   39844          1.0014991     -0.13884132     16.643214      1.502234       21.107887      18.145448     -4.4646732      125603.11      145.17173      28.070272      28.070272     -0.39454047    -0.07579323     0.053809739    0.001803798   -0.0063374534   0.05921331     77917.293      305.0672     
  39848000   39848          1.0035563     -0.12178628     16.648845      1.5053198      21.108262      18.154165     -4.4594167      124719.2       145.18144      28.079052      28.079052     -0.37721463    -0.036146082    0.048001869   -0.0062408594   0.003985163   -0.033080949    77926.151      297.24892    
  39852000   39852          1.0010946     -0.11582478     16.648472      1.5016273      21.112616      18.150099     -4.4641438      125145.51      145.19114      28.069722      28.069722     -0.37768278     0.012558305    0.017650146    0.0048002633   0.039020745   -0.016628281    77934.89       289.42999    
  39856000   39856          0.99647512    -0.12574418     16.646245      1.4946981      21.106514      18.140944     -4.4602682      126093.58      145.20084      28.077554      28.077554     -0.41131753     0.0077906572   0.026294318   -0.036771387    0.024270657   -0.013992916    77943.669      281.61101    
  39860000   39860          0.99734089    -0.1436768      16.650713      1.4959967      21.10813       18.146709     -4.4574169      125512.24      145.21055      28.081489      28.081489     -0.41711081    -0.022902049    0.00898246     0.019883408   -0.044323726    0.031825693    77952.31       273.79136    
  39864000   39864          1.0013611     -0.18440459     16.65543       1.502027       21.109469      18.157457     -4.4540386      124420.66      145.22025      28.09394       28.09394      -0.39931598    -0.087925669   -0.065972127   -0.039744904    0.0069813981   0.0015326253   77961.073      265.97195    
  39868000   39868          0.99958725    -0.15023059     16.646241      1.4993662      21.108735      18.145607     -4.4624942      125644.77      145.22995      28.072283      28.072283     -0.48554277     0.01238486     0.022466139    0.028761112    0.0065479063   0.016756945    77969.852      258.15241    
  39872000   39872          1.0018291     -0.050861525    16.642327      1.5027289      21.107672      18.145056     -4.4653447      125711.06      145.23966      28.061431      28.061431     -0.30568319     0.053919233    0.09917938     0.0097303923   0.0059662132   0.035582089    77978.895      250.33353    
  39876000   39876          1.0013339     -0.14655999     16.644456      1.5019861      21.104812      18.146442     -4.4603563      125578.64      145.24936      28.070001      28.070001     -0.43840599     0.0038509878  -0.0051249612   0.04466936    -0.01451154    -0.0066341097   77987.669      242.51357    
  39880000   39880          1.0069555     -0.039532921    16.644128      1.5104186      21.109084      18.154547     -4.4649558      124757.59      145.25906      28.053133      28.053133     -0.25783816     0.047633941    0.091605459    0.020843095   -0.039379011   -0.0047192024   77996.459      234.69346    
  39884000   39884          0.99693156    -0.075005609    16.649532      1.4953827      21.108352      18.144915     -4.4588194      125754.67      145.26877      28.064085      28.064085     -0.33078183     0.022566843    0.083198162    0.07168995     0.0055379075  -0.019233909    78005.201      226.87302    
  39888000   39888          1.0014777     -0.12896252     16.646322      1.5022018      21.108101      18.148524     -4.4617788      125394.49      145.27847      28.057497      28.057497     -0.30647065    -0.02937935    -0.05103756    -0.020358971    0.0091704877  -0.0052237541   78013.901      219.05227    
  39892000   39892          1.0042648     -0.038339063    16.64668       1.5063826      21.106851      18.153063     -4.4601715      124938.99      145.28817      28.058766      28.058766     -0.30436174     0.069161588    0.12018296     0.022392185    0.014089825   -0.0053577249   78022.707      211.23163    
  39896000   39896          1.0015669     -0.10671928     16.64109       1.5023357      21.111366      18.143426     -4.4702755      125936.4       145.29788      28.046963      28.046963     -0.3719126      0.0095992341   0.042155521   -0.020582705   -0.015540285    0.0062505031   78031.445      203.41062    
  39900000   39900          0.99940594    -0.078162654    16.64909       1.4990943      21.107863      18.148184     -4.4587728      125458.3       145.30758      28.058118      28.058118     -0.34098299     0.062888139    0.043606889    0.0053976851   0.038520453    0.02345423     78040.436      195.59006    
  39904000   39904          1.0022118     -0.09494142     16.654855      1.503303       21.107365      18.158158     -4.4525099      124445.68      145.31728      28.079586      28.079586     -0.3501493      0.057514605    0.0078104297  -0.018724846    0.010430228    0.0033956985   78049.091      187.76846    
  39908000   39908          1.0028419     -0.12967822     16.658237      1.5042481      21.109581      18.162485     -4.4513438      124012.04      145.32699      28.079879      28.079879     -0.36530862     0.0011174375  -0.024843467   -0.014856897   -0.0063115414   0.013434146    78057.782      179.94678    
  39912000   39912          1.0007452     -0.04423994     16.644419      1.5011032      21.106639      18.145522     -4.46222        125760.42      145.33669      28.051103      28.051103     -0.2962672      0.080413114    0.083134261    0.065014068    0.027910901    0.02573885     78066.385      172.12472    
  39916000   39916          0.99902561    -0.18488757     16.641347      1.4985238      21.108196      18.13987      -4.4668494      126349.27      145.34639      28.05296       28.05296      -0.4523786     -0.059064713   -0.04321938    -0.014797082   -0.022164658   -0.016425644    78075.205      164.30297    
  39920000   39920          1.0004781     -0.1536447      16.652375      1.5007025      21.109486      18.153077     -4.4571116      125005.11      145.3561       28.075133      28.075133     -0.40156832    -0.045810724   -0.013555054    0.026947607   -0.047667585   -0.0089739492   78083.882      156.48073    
  39924000   39924          0.99520714    -0.10852068     16.656665      1.4927961      21.109675      18.149461     -4.4530103      125385.54      145.3658       28.088982      28.088982     -0.35175257    -0.033143584    0.059334121   -0.039190443   -0.018644919   -0.0023209311   78092.899      148.65896    
  39928000   39928          1.0007906     -0.12651354     16.645636      1.5011713      21.107933      18.146807     -4.4622967      125667.31      145.3755       28.059665      28.059665     -0.37878385    -0.010213105    0.0094563452   0.021673398   -0.044794126    0.038290938    78101.694      140.83656    
  39932000   39932          1.0000485     -0.075330947    16.646001      1.5000581      21.109717      18.146059     -4.4637155      125753.67      145.38521      28.055031      28.055031     -0.35426386     0.061850325    0.066420693    0.017920886   -0.016598427    0.017009858    78110.54       133.01404    
  39936000   39936          1.0041066     -0.087419692    16.655159      1.5061452      21.113868      18.161305     -4.4587082      124200.69      145.39491      28.063693      28.063693     -0.27767704    -0.017643313    0.033061283   -0.010896352    0.0094242585  -0.054222537    78119.324      125.19122    
  39940000   39940          1.0033482     -0.13285168     16.645329      1.5050075      21.109752      18.150336     -4.464423       125334.43      145.40461      28.051516      28.051516     -0.36412568     0.0085142577  -0.042943609    0.060641325    0.089789185    0.042362353    78127.949      117.36798    
  39944000   39944          1.0004473     -0.17044097     16.645459      1.5006563      21.109792      18.146115     -4.4643334      125776.65      145.41432      28.049549      28.049549     -0.4216376     -0.045781043   -0.043904278   -0.03401936     0.018174029   -0.0081839395   78136.814      109.5449     
  39948000   39948          0.99739568    -0.16643965     16.642247      1.4960789      21.106334      18.138326     -4.4640875      126584.54      145.42402      28.052605      28.052605     -0.41822248    -0.071582199   -0.0095142584  -0.019740675    0.010663038    0.0019068044   78145.703      101.72165    
  39952000   39952          1.0000837     -0.14943336     16.647974      1.5001108      21.108818      18.148085     -4.4608441      125594.02      145.43372      28.054102      28.054102     -0.36490403    -0.04355761    -0.039838426   -0.049729121   -0.00085286393  0.027073111    78154.397      93.897954    
  39956000   39956          1.0013944     -0.14897451     16.646232      1.5020769      21.106588      18.148309     -4.4603559      125580.41      145.44343      28.062623      28.062623     -0.32742832    -0.097566039   -0.021929169   -0.018392797   -0.043656009    0.0029958      78163.307      86.074319    
  39960000   39960          0.99769459    -0.17775132     16.643268      1.4965273      21.109406      18.139795     -4.4661384      126462.78      145.45313      28.058054      28.058054     -0.4021204     -0.06585154    -0.065282028    0.02057794     0.0013994831   0.031608782    78172.255      78.250505    
  39964000   39964          1.0013636     -0.093109705    16.645508      1.5020308      21.105749      18.147539     -4.4602412      125678.76      145.46283      28.042125      28.042125     -0.33867823     0.065367248   -0.0060181355  -0.0006536583  -0.0025153923  -0.0370355      78181.119      70.426391    
  39968000   39968          1.0039641     -0.2054594      16.650635      1.5059315      21.109184      18.156566     -4.4585488      124763.33      145.47254      28.063865      28.063865     -0.48394761    -0.077139164   -0.055291424   -0.0058821775   0.030880572    0.015328572    78189.949      62.602041    
  39972000   39972          1.0016645     -0.098455197    16.655427      1.5024821      21.110033      18.157909     -4.4546061      124635.72      145.48224      28.052764      28.052764     -0.36704451     0.049274648    0.022404274    0.032571309   -0.017052771    0.016249195    78198.728      54.777454    
  39976000   39976          1.0020436     -0.10659514     16.642112      1.5030507      21.109162      18.145163     -4.4670498      125951.66      145.49194      28.023315      28.023315     -0.32084846    -0.0066205756   0.0076836265   0.011561426    0.014093716   -0.030061527    78207.581      46.95272     
  39980000   39980          1.0030012     -0.071706177    16.638975      1.5044871      21.1089        18.143462     -4.4699244      126135.43      145.50165      28.02542       28.02542      -0.38298471     0.1043376      0.063528583    0.0091487854   0.0080054025  -0.040440866    78216.542      39.127835    
  39984000   39984          1.0069923     -0.0094314761   16.647436      1.5104737      21.107913      18.15791      -4.4604767      124664.28      145.51135      28.036652      28.036652     -0.23484013     0.096680247    0.10986546     0.00081553575 -0.010589582   -0.0083122686   78225.4        31.302681    
  39988000   39988          0.9991793     -0.10104411     16.650854      1.4987543      21.105885      18.149608     -4.4550313      125524.94      145.52105      28.049745      28.049745     -0.3165062     -0.010223716    0.023597575   -0.052163112    0.0070910313  -0.027920691    78234.385      23.477359    
  39992000   39992          0.99766625    -0.1807728      16.647806      1.4964848      21.109068      18.144291     -4.461262       126079.7       145.53076      28.05163       28.05163      -0.40339366    -0.059399143   -0.079525612    0.0098656239   0.023828903    0.028677167    78243.072      15.651745    
  39996000   39996          1.0024259     -0.14773302     16.64141       1.5036241      21.109883      18.145034     -4.4684735      126013.21      145.54046      28.040478      28.040478     -0.43676686     0.027710951   -0.034143144   -0.0014335012   0.001786811    0.034452194    78251.768      7.8259594    
  40000000   40000          0.9986632     -0.099221387    16.638241      1.4979802      21.10664       18.136221     -4.4683984      126926.01      145.55016      28.043147      28.043147     -0.28426874    -0.020180516    0.0067850966   0.04197821    -0.0035465854  -0.0024768606   78260.436      0            
Loop time of 78260.4 on 18 procs for 40000000 steps with 102500 atoms

Performance: 44160.245 tau/day, 511.114 timesteps/s
92.6% CPU use with 18 MPI tasks x 1 OpenMP threads

MPI task timing breakdown:
Section |  min time  |  avg time  |  max time  |%varavg| %total
---------------------------------------------------------------
Pair    | 10001      | 10398      | 10786      | 239.2 | 13.29
Bond    | 11542      | 11803      | 12505      | 195.2 | 15.08
Neigh   | 250.21     | 266.46     | 294.09     |  73.8 |  0.34
Comm    | 14004      | 14986      | 15499      | 265.2 | 19.15
Output  | 919.37     | 919.4      | 919.41     |   0.0 |  1.17
Modify  | 37584      | 37884      | 38204      | 105.2 | 48.41
Other   |            | 2004       |            |       |  2.56

Nlocal:        5694.44 ave        5741 max        5671 min
Histogram: 5 1 3 2 3 2 0 1 0 1
Nghost:        9989.61 ave       10060 max        9939 min
Histogram: 1 2 3 3 4 2 1 1 0 1
Neighs:              0 ave           0 max           0 min
Histogram: 18 0 0 0 0 0 0 0 0 0

Total # of neighbors = 0
Ave neighs/atom = 0
Ave special neighs/atom = 6.627161
Neighbor list builds = 1331870
Dangerous builds = 0

# GENERATION RESTART
write_restart ./out.deform.restart
System init for write_restart ...
Generated 0 of 36 mixed pair_coeff terms from geometric mixing rule
write_data    ./out.deform.data pair ij
System init for write_data ...
Generated 0 of 36 mixed pair_coeff terms from geometric mixing rule
Total wall time: 21:44:23
