LAMMPS (15 Sep 2022)
OMP_NUM_THREADS environment is not set. Defaulting to 1 thread. (src/comm.cpp:98)
  using 1 OpenMP thread(s) per MPI task
package gpu 0 binsize 12.0
# LAMMPS Script for deform
# Generated 12/17/2022

# INIT PARAMS & READ CONF
include   "/work_bgfs/h/harshad/simulation_9/neat_polymer/config_4/system.init"
# UNITS
units		lj
dimension	3
atom_style	bond

# INPUT FILE
pair_style	lj/cut 2.5
bond_style	fene
read_data /work_bgfs/h/harshad/simulation_9/neat_polymer/config_4/quiescent/thermal_replicates/3.npt.data
Reading data file ...
  orthogonal box = (-24.26011 -24.26011 -24.26011) to (24.26011 24.26011 24.26011)
  2 by 3 by 3 MPI processor grid
  reading atoms ...
  102500 atoms
  reading velocities ...
  102500 velocities
  scanning bonds ...
  2 = max bonds/atom
  reading bonds ...
  104500 bonds
Finding 1-2 1-3 1-4 neighbors ...
  special bond factors lj:    0        0        0       
  special bond factors coul:  0        0        0       
     4 = max # of 1-2 neighbors
     4 = max # of 1-3 neighbors
     8 = max # of 1-4 neighbors
    12 = max # of special neighbors
  special bonds CPU = 0.004 seconds
  read_data CPU = 1.135 seconds
include   "/work_bgfs/h/harshad/simulation_9/neat_polymer/config_4/system.settings"
# ATOM TYPE
mass  1  1.0 #backbone
mass  2  1.0 #endmer
mass  3  1.0 #crosslinker
mass  4  1.0 #outer shell
mass  5  1.0 #inner shell 2
mass  6  1.0 #inner-most shell
mass  7  1.0 #center bead
mass  8  1.0 #endmer post crosslinking
mass  9  1.0 #crosslinker post crosslinking

# BOND
bond_coeff * 30.0 1.50 1.0 1.0
special_bonds lj 0.0 1.0 1.0
Finding 1-2 1-3 1-4 neighbors ...
  special bond factors lj:    0        1        1       
  special bond factors coul:  0        0        0       
     4 = max # of 1-2 neighbors
     4 = max # of 1-3 neighbors
     8 = max # of 1-4 neighbors
    12 = max # of special neighbors
  special bonds CPU = 0.003 seconds

# PAIR
pair_coeff  1*9 1*9 1.0 1.0 2.5

pair_modify  shift yes
neigh_modify delay 1 check yes

# MAKE GROUPS
group polymer type 1 2 3 8 9
102500 atoms in group polymer
#group ins     type 1
#group strand  type 1 2 8
#group ends    type 2 8
#group xlinks  type 3 9
#group filler  type 4 5 6 7

# INPUTS FROM SBATCH
variable Temp          equal 1.0
variable gamma_total   equal 2.0
variable gamma_rate    equal 0.00005
variable dt            equal 0.001
variable Nfreq         equal 4000
variable Nrepeat_2     equal 100
variable Nevery_1      equal 1
variable Nrepeat_1     equal 1

variable Run           equal ${gamma_total}/${gamma_rate}/${dt}
variable Run           equal 2/${gamma_rate}/${dt}
variable Run           equal 2/5e-05/${dt}
variable Run           equal 2/5e-05/0.001

# RUN OPTIONS
run_style verlet
timestep  ${dt}
timestep  0.001

# RESTART
restart  ${Nfreq} cycle.1.restart cycle.2.restart
restart  4000 cycle.1.restart cycle.2.restart

## SAVE RESTARTS EVERY 10% EXTENSION
#variable RestFreq      equal 0.1/${gamma_rate}/${dt}
#restart  ${RestFreq} deform.*.restart
#
# COMPUTE ke/atom, pe/atom, pxx/atom, position and time-avg
compute     ke_atm          all     ke/atom
compute     p_atm           all     stress/atom NULL
compute     pe_atm          all     pe/atom
compute     ebond_atm       all     pe/atom bond
compute     posit_atm       all     property/atom x y z
fix         avg_ke_atm_1    all     ave/atom ${Nevery_1} ${Nrepeat_1} ${Nfreq} c_ke_atm
fix         avg_ke_atm_1    all     ave/atom 1 ${Nrepeat_1} ${Nfreq} c_ke_atm
fix         avg_ke_atm_1    all     ave/atom 1 1 ${Nfreq} c_ke_atm
fix         avg_ke_atm_1    all     ave/atom 1 1 4000 c_ke_atm
fix         avg_pxx_atm_1   all     ave/atom ${Nevery_1} ${Nrepeat_1} ${Nfreq} c_p_atm[*]
fix         avg_pxx_atm_1   all     ave/atom 1 ${Nrepeat_1} ${Nfreq} c_p_atm[*]
fix         avg_pxx_atm_1   all     ave/atom 1 1 ${Nfreq} c_p_atm[*]
fix         avg_pxx_atm_1   all     ave/atom 1 1 4000 c_p_atm[*]
fix         avg_pe_atm_1    all     ave/atom ${Nevery_1} ${Nrepeat_1} ${Nfreq} c_pe_atm
fix         avg_pe_atm_1    all     ave/atom 1 ${Nrepeat_1} ${Nfreq} c_pe_atm
fix         avg_pe_atm_1    all     ave/atom 1 1 ${Nfreq} c_pe_atm
fix         avg_pe_atm_1    all     ave/atom 1 1 4000 c_pe_atm
#fix         avg_posit_atm_1 all     ave/atom ${Nevery_1} ${Nrepeat_1} ${Nfreq} c_posit_atm[1] c_posit_atm[2] c_posit_atm[3]
dump        dump_1 all custom ${Nfreq} ${out_dir}traj.${Nevery_1}_${Nrepeat_1}_${Nfreq}.xyz mol type x y z f_avg_ke_atm_1 f_avg_pe_atm_1 f_avg_pxx_atm_1[*]
dump        dump_1 all custom 4000 ${out_dir}traj.${Nevery_1}_${Nrepeat_1}_${Nfreq}.xyz mol type x y z f_avg_ke_atm_1 f_avg_pe_atm_1 f_avg_pxx_atm_1[*]
dump        dump_1 all custom 4000 /shares_bgfs/dssimmons_data/harshad/deform/neat_polymer/config_4/3_deform/work_bgfs--h--harshad--simulation_9--neat_polymer--config_4--3_deform--traj.${Nevery_1}_${Nrepeat_1}_${Nfreq}.xyz mol type x y z f_avg_ke_atm_1 f_avg_pe_atm_1 f_avg_pxx_atm_1[*]
dump        dump_1 all custom 4000 /shares_bgfs/dssimmons_data/harshad/deform/neat_polymer/config_4/3_deform/work_bgfs--h--harshad--simulation_9--neat_polymer--config_4--3_deform--traj.1_${Nrepeat_1}_${Nfreq}.xyz mol type x y z f_avg_ke_atm_1 f_avg_pe_atm_1 f_avg_pxx_atm_1[*]
dump        dump_1 all custom 4000 /shares_bgfs/dssimmons_data/harshad/deform/neat_polymer/config_4/3_deform/work_bgfs--h--harshad--simulation_9--neat_polymer--config_4--3_deform--traj.1_1_${Nfreq}.xyz mol type x y z f_avg_ke_atm_1 f_avg_pe_atm_1 f_avg_pxx_atm_1[*]
dump        dump_1 all custom 4000 /shares_bgfs/dssimmons_data/harshad/deform/neat_polymer/config_4/3_deform/work_bgfs--h--harshad--simulation_9--neat_polymer--config_4--3_deform--traj.1_1_4000.xyz mol type x y z f_avg_ke_atm_1 f_avg_pe_atm_1 f_avg_pxx_atm_1[*]
dump_modify dump_1 append yes sort id

# COMPUTE a separate pe and ke for each group, AVG & SAVE
compute   pe_polymer    all reduce  sum c_pe_atm
compute   ke_polymer    all reduce  sum c_ke_atm
compute   ebond_polymer all reduce  sum c_ebond_atm
compute   pxx_polymer   all reduce  sum c_p_atm[1] c_p_atm[2] c_p_atm[3]
compute   pxy_polymer   all reduce  sum c_p_atm[4] c_p_atm[5] c_p_atm[6]
fix 		  avgEnergy     all     ave/time ${Nevery_1} ${Nrepeat_2} ${Nfreq} c_pe_polymer c_ke_polymer c_ebond_polymer c_pxy_polymer[1] c_pxy_polymer[2] c_pxy_polymer[3] file energy.avg.csv
fix 		  avgEnergy     all     ave/time 1 ${Nrepeat_2} ${Nfreq} c_pe_polymer c_ke_polymer c_ebond_polymer c_pxy_polymer[1] c_pxy_polymer[2] c_pxy_polymer[3] file energy.avg.csv
fix 		  avgEnergy     all     ave/time 1 100 ${Nfreq} c_pe_polymer c_ke_polymer c_ebond_polymer c_pxy_polymer[1] c_pxy_polymer[2] c_pxy_polymer[3] file energy.avg.csv
fix 		  avgEnergy     all     ave/time 1 100 4000 c_pe_polymer c_ke_polymer c_ebond_polymer c_pxy_polymer[1] c_pxy_polymer[2] c_pxy_polymer[3] file energy.avg.csv
fix       avgPxx_all    all     ave/time ${Nevery_1} ${Nfreq} ${Nfreq}     c_pxx_polymer[1] c_pxx_polymer[2] c_pxx_polymer[3]                                           file pxx.all.avg.csv
fix       avgPxx_all    all     ave/time 1 ${Nfreq} ${Nfreq}     c_pxx_polymer[1] c_pxx_polymer[2] c_pxx_polymer[3]                                           file pxx.all.avg.csv
fix       avgPxx_all    all     ave/time 1 4000 ${Nfreq}     c_pxx_polymer[1] c_pxx_polymer[2] c_pxx_polymer[3]                                           file pxx.all.avg.csv
fix       avgPxx_all    all     ave/time 1 4000 4000     c_pxx_polymer[1] c_pxx_polymer[2] c_pxx_polymer[3]                                           file pxx.all.avg.csv

# TIME-AVG Ly
variable Ly equal ly
fix       avgLy         all     ave/time ${Nevery_1} ${Nfreq} ${Nfreq}     v_Ly  file Ly.avg.csv
fix       avgLy         all     ave/time 1 ${Nfreq} ${Nfreq}     v_Ly  file Ly.avg.csv
fix       avgLy         all     ave/time 1 4000 ${Nfreq}     v_Ly  file Ly.avg.csv
fix       avgLy         all     ave/time 1 4000 4000     v_Ly  file Ly.avg.csv

# SIMULATION FIXES
fix  npt        all npt temp ${Temp} ${Temp} 2.0 y 0 0 5 z 0 0 5 couple yz
fix  npt        all npt temp 1 ${Temp} 2.0 y 0 0 5 z 0 0 5 couple yz
fix  npt        all npt temp 1 1 2.0 y 0 0 5 z 0 0 5 couple yz
fix  mom        all momentum 10000 linear 1 1 1
fix  deform     all deform 1 x erate ${gamma_rate} remap x units box
fix  deform     all deform 1 x erate 5e-05 remap x units box

# THERMO
variable  thermo_frq equal ${Nfreq}
variable  thermo_frq equal 4000
thermo    ${thermo_frq}
thermo    4000
thermo_style  custom step time temp press pe ke ebond etotal epair ecouple lx ly lz pxx pyy pzz pxy pxz pyz cpu cpuremain

# deform
run ${Run}
run 40000000

CITE-CITE-CITE-CITE-CITE-CITE-CITE-CITE-CITE-CITE-CITE-CITE-CITE

Your simulation uses code contributions which should be cited:

- GPU package (short-range, long-range and three-body potentials): doi:10.1016/j.cpc.2010.12.021, doi:10.1016/j.cpc.2011.10.012, doi:10.1016/j.cpc.2013.08.002, doi:10.1016/j.commatsci.2014.10.068, doi:10.1016/j.cpc.2016.10.020, doi:10.3233/APC200086

@Article{Brown11,
 author = {W. M. Brown and P. Wang and S. J. Plimpton and A. N. Tharrington},
 title = {Implementing Molecular Dynamics on Hybrid High Performance Computers---Short Range Forces},
 journal = {Comput.\ Phys.\ Commun.},
 year =    2011,
 volume =  182,
 pages =   {898--911},
 doi =     {10.1016/j.cpc.2010.12.021}
}

@Article{Brown12,
 author = {W. M. Brown and A. Kohlmeyer and S. J. Plimpton and A. N. Tharrington},
 title = {Implementing Molecular Dynamics on Hybrid High Performance Computers - Particle-Particle Particle-Mesh},
 journal = {Comput.\ Phys.\ Commun.},
 year =    2012,
 volume =  183,
 doi =     {10.1016/j.cpc.2011.10.012},
 pages =   {449--459}
}

@Article{Brown13,
 author = {W. M. Brown and Y. Masako},
 title = {Implementing Molecular Dynamics on Hybrid High Performance Computers---Three-Body Potentials},
 journal = {Comput.\ Phys.\ Commun.},
 year =    2013,
 volume =  184,
 pages =   {2785--2793},
 doi =     {10.1016/j.cpc.2013.08.002},
}

@Article{Trung15,
 author = {T. D. Nguyen and S. J. Plimpton},
 title = {Accelerating Dissipative Particle Dynamics Simulations for Soft Matter Systems},
 journal = {Comput.\ Mater.\ Sci.},
 year =    2015,
 doi =     {10.1016/j.commatsci.2014.10.068},
 volume =  100,
 pages =   {173--180}
}

@Article{Trung17,
 author = {T. D. Nguyen},
 title = {{GPU}-Accelerated {T}ersoff Potentials for Massively Parallel
    Molecular Dynamics Simulations},
 journal = {Comput.\ Phys.\ Commun.},
 year =    2017,
 doi =     {10.1016/j.cpc.2016.10.020},
 volume =  212,
 pages =   {113--122}
}

@inproceedings{Nikolskiy19,
 author = {V. Nikolskiy and V. Stegailov},
 title = {{GPU} Acceleration of Four-Site Water Models in {LAMMPS}},
 booktitle = {Proceedings of the International Conference on Parallel
    Computing (ParCo 2019), Prague, Czech Republic},
 doi =     {10.3233/APC200086},
 year =    2019
}

CITE-CITE-CITE-CITE-CITE-CITE-CITE-CITE-CITE-CITE-CITE-CITE-CITE

Generated 0 of 36 mixed pair_coeff terms from geometric mixing rule
WARNING: Inconsistent image flags (src/domain.cpp:819)
Per MPI rank memory allocation (min/avg/max) = 11.63 | 11.63 | 11.64 Mbytes
   Step          Time           Temp          Press          PotEng         KinEng         E_bond         TotEng         E_pair        Ecouple           Lx             Ly             Lz            Pxx            Pyy            Pzz            Pxy            Pxz            Pyz            CPU          CPULeft    
         0   0              1.0010221     -0.01209019     16.635615      1.5015186      21.106201      18.137133     -4.4705856      0              48.52022       48.52022       48.52022      -0.0047036315   0.003990849   -0.035557788    0.030761172   -0.032646579   -0.013986621    0              0            
      4000   4              0.99687481    -0.033695963    16.639022      1.4952976      21.107304      18.134319     -4.4682818      308.93574      48.529925      48.522075      48.522075      0.045382463   -0.064937676   -0.081532676   -0.022432663   -0.03549688    -0.045409691    7.2595291      72588.042    
      8000   8              0.99482986    -0.021797335    16.632087      1.4922302      21.106704      18.124317     -4.4746171      1354.8643      48.539629      48.498577      48.498577     -0.037208637   -0.010061502   -0.018121867   -0.0039302663   0.032526677    0.0012831984   14.465877      72314.926    
     12000   12             0.99912758    -0.055299209    16.638374      1.4986767      21.109651      18.137051     -4.4712776      70.540367      48.549333      48.511933      48.511933     -0.063765326   -0.045432529   -0.056699774   -0.016611214   -0.016271358    0.023531476    21.587201      71935.754    
     16000   16             1.0013326     -0.010707623    16.634593      1.5019842      21.106642      18.136578     -4.4720491      139.42878      48.559037      48.502504      48.502504      0.019217001   -0.053672954    0.0023330834   0.01676332     0.016803922    0.0046234846   28.665328      71634.658    
     20000   20             0.99763726     0.0041040092   16.632696      1.4964413      21.107678      18.129138     -4.4749818      922.81776      48.568741      48.470731      48.470731     -0.0067118742   0.0049613743   0.014062528    0.017617006   -0.038268462   -0.0032473557   35.864771      71693.68     
     24000   24             1.0022235     -0.029104982    16.637745      1.5033206      21.104741      18.141066     -4.4669951     -279.39829      48.578445      48.501649      48.501649      0.0036254894  -0.076836092   -0.014104343    0.0095304641  -0.01551181    -0.041441277    42.983315      71595.877    
     28000   28             1.000638       0.010614884    16.636569      1.5009423      21.106328      18.137512     -4.4697588      105.28663      48.588149      48.487425      48.487425     -0.023480918    0.070547045   -0.015221476   -0.051249761   -0.010896699   -0.0099736009   50.259098      71748.453    
     32000   32             1.0030364      0.0037075004   16.627503      1.5045399      21.108233      18.132043     -4.4807299      686.24547      48.597853      48.450654      48.450654      0.018213534   -0.033361264    0.026270231    0.015297135   -0.0031229767   0.028375569    57.516624      71838.266    
     36000   36             1.0011966     -0.029836069    16.638946      1.5017803      21.108284      18.140727     -4.469338      -182.97578      48.607557      48.47776       48.47776      -0.0057844103  -0.037079625   -0.04664417    -0.0015196154   0.010264773   -0.0042720346   64.66446       71784.737    
     40000   40             1.0010927     -0.017108765    16.633405      1.5016244      21.107184      18.135029     -4.4737795      421.28295      48.617261      48.456916      48.456916     -0.036823423    0.0068090808  -0.021311952   -0.032981133    0.025239122    0.044207532    71.860781      71788.922    
     44000   44             0.99792011     0.001823466    16.635252      1.4968656      21.107921      18.132117     -4.4726695      740.44999      48.626965      48.449155      48.449155      0.013891728    0.010747457   -0.019168787    0.004848689    0.025556701   -0.004624332    78.989434      71729.588    
     48000   48             1.0005992      0.022393635    16.641958      1.5008841      21.108922      18.142842     -4.4669645     -338.27444      48.636669      48.46111       48.46111       0.01830456     0.027806884    0.021069462   -0.01727168    -0.010872535    0.0023743394   86.270272      71805.624    
     52000   52             1.0056095     -0.028132064    16.646323      1.5083995      21.108084      18.154722     -4.4617617     -1535.0216      48.646373      48.48875       48.48875      -0.05163817    -0.035329252    0.0025712298   0.0054154407  -0.012672614    0.011985487    93.495746      71826.31     
     56000   56             0.99747003    -0.0013153763   16.64437       1.4961904      21.107742      18.14056      -4.4633723     -63.334293      48.656077      48.490493      48.490493      0.021570646    0.0113279     -0.036844674   -0.0020010933   0.021866506   -0.016056642    100.66428      71802.392    
     60000   60             0.9972253     -0.0060622643   16.636763      1.4958234      21.107102      18.132586     -4.470339       774.40716      48.665781      48.451329      48.451329     -0.020571119   -0.0086703067   0.011054632   -0.015474845   -0.010060051    0.022950997    107.796        71756.205    
     64000   64             0.99663093    -0.0020601511   16.633198      1.4949318      21.105031      18.12813      -4.4718328      1251.7422      48.675485      48.439187      48.439187      0.040465608   -0.033640457   -0.013005604    0.0086842442  -4.2369709e-06 -0.024088965    115.12652      71838.948    
     68000   68             1.0027272      0.0039928292   16.638741      1.5040762      21.108647      18.142817     -4.4699053     -233.05791      48.685189      48.448003      48.448003      0.0050920562   0.030141868   -0.023255436    0.0085569401   0.0067372826   0.010739833    122.38206      71867.066    
     72000   72             1.0032282     -0.023871805    16.632328      1.5048276      21.10506       18.137156     -4.4727321      367.61655      48.694893      48.414092      48.414092     -0.046780434   -0.023703188   -0.0011317926  -0.0025247391   0.017602622    0.0074592472   129.53593      71834.868    
     76000   76             0.9962553     -0.065333833    16.634343      1.4943684      21.106571      18.128712     -4.4722283      1253.5352      48.704597      48.417346      48.417346     -0.073091786   -0.080969612   -0.041940101   -0.005985986    0.025459721   -0.0020042801   136.71489      71818.493    
     80000   80             1.0002113     -0.042384117    16.638963      1.5003024      21.106493      18.139265     -4.4675296      192.27931      48.714301      48.444561      48.444561     -0.033895686   -0.028251219   -0.065005444   -0.012718782   -0.021964411    0.018656252    143.77533      71743.892    
     84000   84             1.002575      -0.01328194     16.639246      1.5038478      21.111132      18.143094     -4.4718862     -179.46638      48.724005      48.43213       48.43213       0.023970964   -0.034463256   -0.029353529    0.026115302    0.013056917    0.019797693    150.89517      71703.95     
     88000   88             0.99812327    -0.031377168    16.639256      1.4971703      21.108089      18.136426     -4.4688323      524.55039      48.733709      48.432667      48.432667     -0.026661223   -0.041292542   -0.026177739    0.008653071   -0.042769472   -0.034451942    158.16604      71735.489    
     92000   92             0.99979862    -0.022320714    16.631692      1.4996833      21.101707      18.131375     -4.4700146      1062.8448      48.743413      48.412289      48.412289      0.0036142261  -0.031269771   -0.039306598   -0.022352707   -0.0013031666   0.0090900583   165.38209      71739.874    
     96000   96             0.99467992     0.0035576203   16.62948       1.4920053      21.107983      18.121485     -4.4785031      2097.3565      48.753118      48.359761      48.359761     -0.014503343    0.016797854    0.0083783494   0.010302642   -0.025709564    0.03797937     172.71985      71793.884    
    100000   100            1.0023535     -0.016643527    16.634884      1.5035156      21.105588      18.138399     -4.4707046      384.15368      48.762822      48.399883      48.399883     -0.02498597     0.014244305   -0.039188917   -0.0087381057   0.036306003   -0.016634734    179.86242      71765.106    
    104000   104            0.99957821     0.028294417    16.637159      1.4993527      21.107017      18.136512     -4.4698578      598.17164      48.772526      48.386111      48.386111     -0.030188756    0.074345221    0.040726786   -0.010807439   -0.021423665   -0.016070233    186.95702      71719.589    
    108000   108            1.0004332      0.00067456229  16.634854      1.5006352      21.10713       18.135489     -4.4722765      723.77594      48.78223       48.370353      48.370353      0.037550716   -0.013869595   -0.021657434    0.0035581405  -0.026207903   -0.016495974    194.15702      71715.85     
    112000   112            0.99966012    -0.014826233    16.643212      1.4994755      21.106267      18.142688     -4.4630546      6.0290354      48.791934      48.41809       48.41809       0.029626301   -0.088932871    0.014827872    0.020062601    0.012285978   -0.027313521    201.37831      71719.446    
    116000   116            0.99884135    -0.069094736    16.642484      1.4982474      21.108005      18.140731     -4.4655208      226.94672      48.801638      48.39645       48.39645      -0.074379664   -0.012205424   -0.12069912    -0.0060697705   0.0062557711  -0.0031251358   208.46096      71674.629    
    120000   120            1.000002      -0.00023512261  16.635289      1.4999884      21.107163      18.135277     -4.4718744      806.74344      48.811342      48.36383       48.36383       0.0048658317   0.026538598   -0.032109798   -0.021955418   -0.012573827    0.0042110147   215.51345      71622.303    
    124000   124            0.99379436     0.011948066    16.635764      1.490677       21.108656      18.126441     -4.4728918      1732.9197      48.821046      48.362108      48.362108     -0.0079976765   0.041178877    0.0026629986   0.0078880876   0.0034737726  -0.0069639292   222.88466      71675.393    
    128000   128            1.0003384      0.036811485    16.634221      1.500493       21.104166      18.134714     -4.4699456      905.06562      48.83075       48.348407      48.348407      0.12096072     0.010829493   -0.02135576     0.025077691   -0.035028008   -0.012054908    230.20411      71708.582    
    132000   132            1.0026416     -0.067448684    16.633368      1.5039477      21.107264      18.137316     -4.4738953      658.91262      48.840454      48.368517      48.368517     -0.057430091   -0.096005199   -0.04891076    -0.020157779   -0.037321592    0.0070277935   237.3851       71697.495    
    136000   136            1.0019198     -0.048127967    16.625136      1.502865       21.10324       18.128001     -4.4781036      1633.9779      48.850158      48.33237       48.33237      -0.069705596    0.010636146   -0.085314453    0.024920122    0.033520382   -0.010201093    244.63987      71708.263    
    140000   140            0.99632859     0.03339969     16.624911      1.4944783      21.103543      18.119389     -4.4786322      2537.2865      48.859862      48.316726      48.316726      0.026312937    0.0064426662   0.067443468    0.027410136   -0.01105205     0.023494184    251.86919      71710.758    
    144000   144            1.0019706      0.026935227    16.632723      1.5029412      21.10649       18.135664     -4.4737673      889.64882      48.869566      48.323233      48.323233      0.022083053    0.037095208    0.021627419    0.019482108   -0.014032139    0.032504114    259.10425      71714.298    
    148000   148            0.99949377     0.017042334    16.64318       1.499226       21.110132      18.142406     -4.4669522      219.39856      48.87927       48.339135      48.339135      0.058015782    0.024807987   -0.031696766    0.021776205    0.035987543   -0.0021534332   266.62195      71793.364    
    152000   152            1.0003994      0.017986878    16.635022      1.5005844      21.103698      18.135606     -4.4686756      936.24479      48.888974      48.342948      48.342948      0.04023183     0.023014839   -0.009286035    0.013671511    0.008407937   -0.032317173    274.29853      71909.526    
    156000   156            0.99643532     0.017338237    16.635131      1.4946384      21.106078      18.129769     -4.4709471      1555.2243      48.898678      48.333237      48.333237      0.009811524   -0.0010461521   0.04324934     0.038351516    0.0073416241   0.0035003925   282.26038      72092.197    
    160000   160            0.99402876    -0.019818681    16.650296      1.4910286      21.10727       18.141324     -4.4569741      391.37844      48.908382      48.369008      48.369008     -0.036858271    0.005423402   -0.028021173   -0.016827155   -0.05274349    -0.018350998    289.5464       72097.053    
    164000   164            1.0003671      0.0075182318   16.64614       1.500536       21.109027      18.146676     -4.4628869     -136.26357      48.918086      48.35908       48.35908       0.020482873    0.032965446   -0.030893624   -0.0094683908  -0.0010673243   0.0016958763   296.83235      72101.301    
    168000   168            1.00138        0.004721082    16.631733      1.5020554      21.105631      18.133789     -4.4738974      1204.6844      48.92779       48.299676      48.299676      0.027795191   -0.0088224833  -0.0048094612   0.015926444    0.027031642   -0.017105097    303.89187      72051.314    
    172000   172            1.0028282     -0.027553642    16.632678      1.5042276      21.106185      18.136906     -4.4735072      905.88602      48.937494      48.303722      48.303722     -0.070860788    0.0079873367  -0.019787474   -0.037517897    0.028775969    0.0025229581   311.06382      72029.361    
    176000   176            1.0024493     -0.018561759    16.646475      1.5036593      21.108632      18.150134     -4.4621572     -429.13019      48.947198      48.319884      48.319884      0.0084563034  -0.016913177   -0.047228402   -0.027785879    0.01139812    -0.036183265    318.17436      71994.18     
    180000   180            1.0066842      0.046240054    16.631608      1.5100115      21.104792      18.14162      -4.4731842      463.42746      48.956902      48.29824       48.29824       0.063925926    0.043343921    0.031450314   -0.0100599      0.034092761   -0.028798417    325.44453      71995.562    
    184000   184            1.002099       0.010222762    16.629663      1.5031339      21.105799      18.132797     -4.4761355      1388.0178      48.966607      48.282308      48.282308     -0.0040994465   0.031587032    0.0031806997   0.037680972   -0.016406504   -0.0056509421   332.78463      72011.701    
    188000   188            0.99686115    -0.00015904561  16.635938      1.4952771      21.105852      18.131215     -4.4699145      1570.3978      48.976311      48.283688      48.283688     -0.0035518401   0.025857527   -0.022782823    0.0030853469  -0.054116767    6.8539833e-05  340.00326      72001.117    
    192000   192            1.0009578      0.014577728    16.642329      1.5014221      21.109214      18.143751     -4.4668842      305.98318      48.986015      48.302511      48.302511      0.060855138   -0.011530679   -0.0055912747  -0.030099669    0.036224307    0.00020207304  347.2661       71999.838    
    196000   196            0.99958265    -0.0074591522   16.63586       1.4993594      21.107258      18.135219     -4.4713986      1200.8079      48.995719      48.290156      48.290156     -0.0034518428  -0.025760319    0.0068347053  -0.012410761    0.035334312    0.02815269     354.59638      72012.012    
    200000   200            0.99855068    -0.030697532    16.630661      1.4978114      21.104987      18.128473     -4.4743255      1912.2004      49.005423      48.279858      48.279858      0.013322941    0.0016136771  -0.10702921     0.0085111705   0.037037086    0.0016354472   361.90019      72018.139    
    204000   204            0.99742882    -0.0073456208   16.642014      1.4961286      21.104608      18.138143     -4.4625934      941.69275      49.015127      48.297398      48.297398      0.011844081   -0.0062029077  -0.027678036    0.013783715    0.0079763872   0.0086365272   368.94882      71973.957    
    208000   208            0.99982922    -0.021017153    16.642665      1.4997292      21.10718       18.142394     -4.4645148      526.51589      49.024831      48.295184      48.295184     -0.065292876    0.033582415   -0.031340997   -0.0062804006   0.064167801   -0.023310002    376.0531       71941.852    
    212000   212            0.99180578    -0.039719248    16.637331      1.4876942      21.105093      18.125025     -4.4677616      2327.2555      49.034535      48.273896      48.273896     -0.051353128   -0.034265888   -0.033538726   -0.053869824    0.0016151808  -0.026030365    383.3764       71951.794    
    216000   216            1.0018689     -0.0061424044   16.636095      1.5027886      21.108544      18.138883     -4.4724491      927.26112      49.044239      48.246413      48.246413      0.033850094   -0.040652433   -0.011624874   -0.018116332    0.0035637988   0.019476786    390.53085      71929.998    
    220000   220            0.99969395    -0.025225683    16.634852      1.4995263      21.109947      18.134378     -4.4750952      1409.4481      49.053943      48.233179      48.233179     -0.046869017    0.0086188728  -0.037426905    0.010586647    0.004310948    0.0013068449   398.11386      71986.224    
    224000   224            0.99612146     0.043731331    16.631338      1.4941676      21.109282      18.125506     -4.4779443      2338.7819      49.063647      48.216963      48.216963      0.039521014    0.050360463    0.041312515    0.0042709406  -0.0072078047  -0.025299848    405.79448      72057.505    
    228000   228            0.99978026    -0.01231516     16.634957      1.4996558      21.107411      18.134613     -4.4724535      1426.0121      49.073351      48.234646      48.234646     -0.038231516    0.017784979   -0.016498943   -0.032129221    0.011619185   -0.03224711     412.86216      72019.096    
    232000   232            0.99779089     0.004010465    16.638067      1.4966717      21.103548      18.134739     -4.4654811      1433.1826      49.083055      48.258195      48.258195      0.036376497    0.0036215442  -0.027966646    0.041161399   -0.014429867   -0.027814777    420.00278      71994.27     
    236000   236            1.0030908     -0.079025697    16.641982      1.5046216      21.107606      18.146604     -4.4656241      237.73626      49.092759      48.244785      48.244785     -0.11130477    -0.052030106   -0.073742212    0.0047301891  -0.0072417448  -0.0046777904   427.20326      71980.129    
    240000   240            0.99866117     0.012367696    16.637535      1.4979771      21.105692      18.135512     -4.4681571      1394.8569      49.102463      48.229636      48.229636      0.011240937   -0.0075331447   0.033395295   -0.013119466    0.006126103    0.033970909    434.50634      71983.217    
    244000   244            1.0032384     -0.012447696    16.629148      1.504843       21.104694      18.133991     -4.4755469      1571.2505      49.112167      48.198126      48.198126     -0.032592847    0.019647607   -0.024397849    0.0076553944   0.017852467    0.0077198463   441.62982      71956.702    
    248000   248            1.0025949     -0.014401978    16.63621       1.5038776      21.1062        18.140088     -4.4699897      967.09871      49.121871      48.208989      48.208989      0.019563964   -0.056726764   -0.0060431347   0.0051650346  -0.074080154    0.0012805598   448.80219      71938.648    
    252000   252            1.0024436     -0.013687675    16.651292      1.5036507      21.113413      18.154942     -4.4621214     -534.70125      49.131575      48.244974      48.244974     -0.081807434    0.011341822    0.029402588   -0.0062477377  -0.031653872    0.0065195329   455.89435      71908.289    
    256000   256            1.0044652      0.012633397    16.637793      1.5066831      21.105259      18.144476     -4.4674668      557.92578      49.141279      48.221698      48.221698      0.019965148    0.0065394863   0.011395556    0.012211421    0.010800425   -0.002333272    463.27525      71923.483    
    260000   260            0.99871018     0.0010325038   16.635697      1.4980506      21.105524      18.133748     -4.4698267      1677.889       49.150983      48.193676      48.193676     -0.026794034    0.036748371   -0.0068568252   0.079089537   -0.010024091   -0.093419849    471.0628       72000.138    
    264000   264            0.99584697    -0.026780215    16.638404      1.4937559      21.105129      18.13216      -4.4667251      1861.3159      49.160687      48.209757      48.209757     -0.036139509   -0.061130779    0.016929645    0.050043957    0.008345159   -0.024414209    478.6059       72037.439    
    268000   268            1.0058147      0.029056923    16.635432      1.5087073      21.107191      18.144139     -4.471759       653.29235      49.170391      48.187944      48.187944      0.040351643    0.0072586344   0.039560491    0.026924944   -0.035050671   -0.0045671073   486.011        72052.944    
    272000   272            1.0028588      0.027670769    16.630313      1.5042735      21.1118        18.134587     -4.4814865      1653.0368      49.180095      48.147634      48.147634     -0.0061043631   0.038782385    0.050334286   -0.048576968   -0.00066160652  0.00093124445  493.3872       72063.554    
    276000   276            0.99859458     0.07003295     16.629747      1.4978773      21.108219      18.127625     -4.4784718      2386.6223      49.1898        48.155633      48.155633      0.097198188   -0.0083958713   0.12129653    -0.010764513   -0.004905876    0.020190476    500.56485      72045.066    
    280000   280            0.99822362    -0.040251376    16.638201      1.4973208      21.10826       18.135522     -4.4700587      1597.5679      49.199504      48.201167      48.201167     -0.036876425   -0.052376975   -0.031500728    0.014092703   -0.015991172    0.0085077202   507.96225      72058.074    
    284000   284            1.0005612     -0.064091575    16.636639      1.5008272      21.102596      18.137466     -4.4659577      1418.7959      49.209208      48.199234      48.199234     -0.043722382   -0.11506744    -0.033484899   -0.0076639915  -0.020283357    0.0089622548   515.01711      72022.604    
    288000   288            1.0018588     -0.037567168    16.631222      1.5027736      21.105278      18.133995     -4.4740564      1794.8162      49.218912      48.154702      48.154702     -0.046073272   -0.049631978   -0.016996254    0.010553284    0.0071894402   0.0050520629   522.07279      71988.037    
    292000   292            1.0035153     -0.0090184109   16.627275      1.5052582      21.104807      18.132534     -4.4775317      1964.8584      49.228616      48.140448      48.140448     -0.043224533    0.018976686   -0.002807386   -0.029167593   -0.020648038   -0.018921749    529.15977      71958.481    
    296000   296            1.0043016      0.05676325     16.638275      1.5064376      21.109448      18.144713     -4.4711728      737.23346      49.23832       48.140073      48.140073      0.059721983    0.038011403    0.072556363    0.030668627   -0.027603267   -0.016407515    536.50796      71964.568    
    300000   300            1.0004443      0.036779987    16.635911      1.5006518      21.10543       18.136562     -4.4695191      1592.9172      49.248024      48.148875      48.148875      0.037053655    0.075213952   -0.001927647   -0.028400557   -0.030715996    0.0082002373   543.65699      71943.942    
    304000   304            1.0015594      0.0040200897   16.628649      1.5023244      21.104992      18.130973     -4.4763428      2185.8656      49.257728      48.127261      48.127261      0.062519825   -0.053160305    0.0027007492  -0.0020908172  -0.010258353    0.030928317    550.96348      71944.231    
    308000   308            1.007962       0.0704799      16.631877      1.5119283      21.110204      18.143805     -4.4783273      890.88752      49.267432      48.13666       48.13666       0.095561387    0.061569329    0.054308984   -0.032041205    0.003847241    0.042992653    558.14096      71927.698    
    312000   312            0.99747866    -0.00021778485  16.63966       1.4962034      21.105815      18.135864     -4.4661541      1725.1973      49.277136      48.148514      48.148514     -0.036681673    0.042114202   -0.0060858841   0.026942055    0.0014883344   0.03084171     565.53713      71939.223    
    316000   316            1.0015115      0.010406479    16.632131      1.5022526      21.107522      18.134383     -4.4753911      1897.4201      49.28684       48.127247      48.127247     -0.024940892    0.0419182      0.014242128   -0.012271063    0.0013407611   0.0042969565   572.79308      71932.661    
    320000   320            1.000884       0.025328942    16.634461      1.5013114      21.108786      18.135772     -4.4743256      1775.5671      49.296544      48.121831      48.121831      0.0033407498   0.056869809    0.015776269    0.057058109   -0.011332619   -0.015249795    579.92851      71911.136    
    324000   324            1.0025912      0.042182575    16.638801      1.5038721      21.109466      18.142673     -4.470665       1088.6804      49.306248      48.124738      48.124738     -0.0040455374   0.028228469    0.10236479    -0.040773819    0.011517001   -0.055195804    587.17078      71903.049    
    328000   328            1.0033073      0.036320673    16.631389      1.5049463      21.104931      18.136335     -4.4735417      1758.6508      49.315952      48.090595      48.090595      0.054827384   -0.0050114421   0.059146076   -0.033044667    0.015970933    0.025686878    594.22772      71872.567    
    332000   332            0.99836632    -0.019883777    16.634406      1.4975349      21.107079      18.131941     -4.4726726      2229.7332      49.325656      48.122517      48.122517     -0.0037786644  -0.013017896   -0.04285477     0.0031091223  -0.047898197   -0.073741112    601.45825      71863.391    
    336000   336            0.99966004    -0.035080576    16.642226      1.4994754      21.103587      18.141702     -4.4613608      1250.0726      49.33536       48.132462      48.132462     -0.05441175    -0.02309454    -0.02773544     0.028430275    0.026142566    0.016461616    608.55517      71838.489    
    340000   340            1.0021677      0.023615055    16.635716      1.5032369      21.108469      18.138953     -4.4727531      1552.0516      49.345064      48.095755      48.095755      0.017455304    0.022505178    0.030884683    0.0080266857   0.016624495    0.034410769    615.61166      71809.289    
    344000   344            0.99963973    -0.047964511    16.631642      1.499445       21.104683      18.131086     -4.473041       2378.6329      49.354768      48.105836      48.105836     -0.073998763   -0.036010239   -0.03388453     0.011112365   -0.024806905    0.00056181464  622.55059      71767.053    
    348000   348            1.0001969     -0.02355436     16.636056      1.5002807      21.103028      18.136337     -4.466972       1860.5369      49.364472      48.118219      48.118219     -0.021851533   -0.04586134    -0.0029502087   0.01377666    -0.00089791104 -0.0087702012   629.71694      71751.541    
    352000   352            1.0001239      0.005033243    16.644931      1.5001713      21.108096      18.145102     -4.4631649      982.80367      49.374176      48.126925      48.126925      0.044537737    0.018760253   -0.048198261    0.0097097233   0.066093499    0.0041984072   636.88655      71736.585    
    356000   356            0.99899073    -0.028536598    16.636544      1.4984715      21.103487      18.135016     -4.4669427      2036.6796      49.38388       48.109277      48.109277     -0.017886684   -0.038342781   -0.029380328   -0.019589694    0.00067338484 -0.023664499    643.93945      71708.808    
    360000   360            0.99886812    -0.034767912    16.63225       1.4982876      21.107103      18.130538     -4.4748528      2516.0426      49.393584      48.077408      48.077408     -0.068784884   -0.064577405    0.029058554    0.011146523   -0.039424167    0.0091485146   651.24547      71709.363    
    364000   364            0.99757903     0.023436788    16.626329      1.4963539      21.101468      18.122683     -4.4751395      3340.8249      49.403288      48.060341      48.060341     -0.010948013    0.032489727    0.048768651    0.016014827   -0.0092793261   0.021543187    658.42193      71695.637    
    368000   368            1.0017229     -0.0021138441   16.629413      1.5025697      21.106246      18.131982     -4.4768332      2407.8403      49.412993      48.05354       48.05354       0.037209443   -0.03891995    -0.0046310253  -0.0089825476  -0.041525853   -0.0040559954   665.62767      71685.206    
    372000   372            0.99949427    -0.007398807    16.639933      1.4992268      21.106833      18.13916      -4.4668999      1692.6574      49.422697      48.080017      48.080017      0.026852961   -0.028841091   -0.02020829     0.048167781   -0.04710734     0.0021569261   672.82613      71674.07     
    376000   376            0.99811557     0.023564421    16.644356      1.4971587      21.108674      18.141514     -4.4643184      1471.258       49.432401      48.077731      48.077731      0.011832177    0.0015159009   0.057345185    0.0082074464  -0.031961076    0.046623803    679.81069      71640.476    
    380000   380            1.0006734      0.078793821    16.631261      1.5009955      21.105151      18.132257     -4.4738895      2440.4014      49.442105      48.040864      48.040864      0.09100119     0.094200801    0.051179472    0.0054596395  -0.0090355438  -0.036537533    686.98435      71627.158    
    384000   384            0.99749335    -0.021509382    16.629841      1.4962254      21.107301      18.126066     -4.4774606      3094.8673      49.451809      48.035253      48.035253     -0.048370288   -0.034654104    0.018496247   -0.0013243384   0.020769329   -0.016997251    694.16111      71614.288    
    388000   388            1.0030324     -0.014352681    16.635565      1.504534       21.110242      18.140099     -4.4746773      1676.4698      49.461513      48.033057      48.033057     -0.0046771647  -0.031903587   -0.0064772926   0.0044436417  -0.0034685167   0.021894805    701.10323      71577.581    
    392000   392            0.99841135    -0.026838341    16.635279      1.4976024      21.105979      18.132881     -4.4707005      2436.4756      49.471217      48.05155       48.05155       0.0072056806  -0.013629688   -0.074091015    0.018174544   -0.0036208515  -0.01889187     708.10907      71547.918    
    396000   396            0.99847371    -0.016357541    16.631706      1.4976959      21.108135      18.129402     -4.4764292      2813.4565      49.480921      48.02644       48.02644       0.0052011029  -0.041370834   -0.012902893   -0.026296442    0.042380975    0.012935758    715.15593      71522.817    
    400000   400            1.0021752      0.0046501372   16.630456      1.5032482      21.106406      18.133705     -4.4759493      2392.7131      49.490625      48.02218       48.02218      -0.025400656   -0.021230222    0.060581289    0.016031341    0.054723969   -0.026270638    722.11742      71489.625    
    404000   404            0.99569029    -0.048348996    16.648587      1.4935209      21.113842      18.142108     -4.4652548      1551.7284      49.500329      48.048337      48.048337      0.018496717   -0.076852847   -0.08669086     0.0012630148  -0.057366397   -0.01064977     729.21705      71470.491    
    408000   408            0.99671485     0.051392971    16.637495      1.4950577      21.106844      18.132552     -4.4693489      2550.8889      49.510033      48.022291      48.022291      0.055747765    0.063071016    0.035360133   -0.026297337    0.013417736    0.01813041     736.32626      71452.523    
    412000   412            1.0022858      0.028112964    16.628326      1.503414       21.104669      18.13174      -4.4763425      2654.0389      49.519737      47.996173      47.996173     -5.374553e-05   0.051255371    0.033137268    0.022138502   -0.033352065   -0.027970291    743.38882      71430.284    
    416000   416            1.0030248      0.049616146    16.641077      1.5045225      21.10875       18.1456       -4.4676729      1253.6874      49.529441      48.014982      48.014982      0.028482649    0.0068257343   0.11354006     0.0052086116   0.023466594   -0.017580566    750.48155      71411.206    
    420000   420            1.0044948     -0.00072724684  16.632943      1.5067275      21.107883      18.139671     -4.4749402      1882.1256      49.539145      47.990446      47.990446     -0.0059196745   0.029298909   -0.025560975    0.003013439   -0.013113489    0.012297027    757.72021      71406.109    
    424000   424            1.0008783      0.030074368    16.632723      1.5013028      21.106166      18.134026     -4.473443       2480.8808      49.548849      47.991381      47.991381     -0.013961458    0.042291649    0.061892913   -0.009243589   -0.026933609   -0.036709204    765.1091       71414.995    
    428000   428            1.0005482     -0.062168276    16.639409      1.5008077      21.109914      18.140217     -4.4705052      1866.6934      49.558553      48.014112      48.014112     -0.054878149   -0.07551931    -0.056107368   -0.017926119   -0.0023506231  -0.022058849    772.39178      71413.756    
    432000   432            1.0048688      0.0090446624   16.644672      1.5072885      21.106244      18.15196      -4.4615719      683.68603      49.568257      48.02574       48.02574      -0.016452408   -0.0092872779   0.052873673    0.023921464    0.0038239995   0.029644605    779.57711      71403.488    
    436000   436            0.99881322     0.0016581018   16.640964      1.4982052      21.108244      18.139169     -4.46728        2015.3733      49.577961      48.011264      48.011264     -0.036404159   -0.017504773    0.058883237    0.0049151346   0.059396026    0.047140469    786.77419      71394.345    
    440000   440            0.99887108    -0.0151257      16.633563      1.498292       21.107229      18.131855     -4.4736667      2785.0625      49.587665      47.988192      47.988192     -0.034959166   -0.0034333435  -0.0069845917   0.02838927    -0.00065947052 -0.029931964    794.09844      71396.669    
    444000   444            0.99754221     0.013582502    16.624589      1.4962987      21.102036      18.120888     -4.477447       3928.9752      49.597369      47.94596       47.94596       0.021223761    0.0014566043   0.018067141    0.014184065   -0.010855874    0.014516785    801.17087      71376.385    
    448000   448            0.99821533     0.028217942    16.631126      1.4973084      21.102469      18.128434     -4.4713433      3175.4775      49.607073      47.969093      47.969093     -0.009500305    0.030154518    0.063999612   -0.044437903   -0.034191387    0.0053682352   808.28286      71359.829    
    452000   452            1.0067652      0.013720006    16.633442      1.5101331      21.106886      18.143575     -4.4734437      1643.9002      49.616777      47.955956      47.955956      0.026008138   -0.034176962    0.049328841    0.019473836   -0.0053620074   0.014116341    815.41447      71345.159    
    456000   456            1.0020582      0.070982357    16.63331       1.5030726      21.104971      18.136383     -4.4716608      2401.5857      49.626482      47.941282      47.941282      0.030089157    0.049522715    0.1333352     -0.0034180641   0.015519861   -0.047173021    822.57332      71332.981    
    460000   460            0.99910206    -0.004524171    16.631818      1.4986385      21.110854      18.130456     -4.4790367      3029.4627      49.636186      47.934282      47.934282     -0.036809889    0.052670535   -0.029433158   -0.04038174     0.022877648   -0.050552379    829.77575      71324.637    
    464000   464            0.99908495     0.0008800962   16.637416      1.4986128      21.107885      18.136028     -4.4704693      2478.4711      49.64589       47.948625      47.948625      0.0024171802   0.00076200516 -0.00053889672 -0.017099824    0.034064616    0.0021596584   836.993        71317.577    
    468000   468            1.0004197     -0.041640046    16.636735      1.500615       21.109314      18.13735      -4.4725789      2363.1424      49.655594      47.958183      47.958183     -0.083145229   -0.023046528   -0.018728381   -0.041550557   -0.049413763    0.0013853454   844.19984      71309.633    
    472000   472            0.99984845    -0.051092832    16.626717      1.499758       21.107032      18.126475     -4.4803158      3498.1448      49.665298      47.929555      47.929555     -0.071100203   -0.018963447   -0.063214847    0.016848205    0.016478267    0.030401179    851.29961      71292.735    
    476000   476            0.99675125     0.039886372    16.637069      1.4951123      21.106894      18.132181     -4.4698253      2933.4875      49.675002      47.933549      47.933549      0.026864591    0.031575741    0.061218784    0.036826298    0.0019194293   0.020704306    858.49038      71283.559    
    480000   480            1.0009804     -0.0097922693   16.63804       1.5014559      21.107064      18.139496     -4.4690241      2203.6836      49.684706      47.933428      47.933428      0.04849247    -0.069721973   -0.0081473051   0.00023121577  0.0095981075  -0.041306642    865.71433      71277.147    
    484000   484            0.999191       0.0066260522   16.64016       1.4987719      21.106548      18.138931     -4.466388       2281.9601      49.69441       47.93862       47.93862       0.039343641   -0.0017852833  -0.017680201   -0.0022155477   0.011783069   -0.023796136    872.88516      71266.384    
    488000   488            1.0040481      0.028825097    16.641043      1.5060575      21.109876      18.1471       -4.4688335      1464.8156      49.704114      47.925943      47.925943     -0.034267026    0.043730136    0.077012182    0.02067323     0.011053733   -0.01467051     880.17006      71264.917    
    492000   492            0.99881226     0.054468128    16.634158      1.4982038      21.108704      18.132362     -4.4745456      2995.6167      49.713818      47.901836      47.901836      0.10265874     0.043801889    0.01694375     0.020973862   -0.025687684    0.030845533    887.32049      71252.557    
    496000   496            0.99584704    -0.042015451    16.64002       1.493756       21.105244      18.133776     -4.4652245      2870.7169      49.723522      47.930922      47.930922      0.0031984538  -0.032264536   -0.09698027    -0.010444071    0.023383444    0.036697413    894.50574      71243.054    
    500000   500            1.0014561      0.012214487    16.639036      1.5021694      21.109835      18.141206     -4.4707994      2129.3525      49.733226      47.932508      47.932508      0.0028451286   0.024694822    0.0091035092   0.004432771    0.015792882    0.018243647    901.68272      71232.935    
    504000   504            0.99790208     0.0018006705   16.630207      1.4968385      21.102514      18.127045     -4.4723075      3600.3939      49.74293       47.910509      47.910509      0.0050678259  -0.0055701863   0.005904372    0.028966355   -0.015350251    0.014359873    908.73407      71213.018    
    508000   508            0.99626172     0.007885512    16.6403        1.494378       21.110454      18.134678     -4.4701531      2838.2455      49.752634      47.913173      47.913173      0.0065696077   0.01520247     0.0018844585   0.0049766066  -0.017994219   -0.030583212    915.83506      71197.162    
    512000   512            1.0011363     -0.02396897     16.642691      1.5016898      21.109185      18.14438      -4.4664948      1864.3277      49.762338      47.92767       47.92767      -0.0007997741  -0.033214225   -0.037892912   -0.013295444    0.03286196     0.0011114603   923.16769      71199.308    
    516000   516            0.99853601     0.056560351    16.639305      1.4977894      21.110399      18.137094     -4.4710944      2631.5863      49.772042      47.880493      47.880493      0.035642174    0.072127833    0.061911045    0.0014334808   0.010177109   -0.0093152091   930.30628      71186.46     
    520000   520            1.0035886      0.066955597    16.628535      1.5053683      21.106886      18.133903     -4.4783517      2978.7984      49.781746      47.870156      47.870156      0.0798358      0.034271225    0.086759766   -0.024606744   -0.014499016   -0.043988883    937.47842      71176.246    
    524000   524            1.0044074      0.042474648    16.632208      1.5065965      21.108454      18.138804     -4.476246       2496.9382      49.79145       47.863612      47.863612      0.023184732    0.094808421    0.0094307905   0.010844073   -0.035391331   -0.013002278    944.72806      71171.918    
    528000   528            0.99806606    -0.0058427007   16.640065      1.4970845      21.104595      18.137149     -4.4645304      2686.8688      49.801154      47.889901      47.889901      0.021696877   -0.041107095    0.0018821162   0.013714261   -0.044422314    0.030805457    952.02487      71171.071    
    532000   532            0.99904778     0.005420294    16.642819      1.498557       21.106802      18.141376     -4.4639835      2273.721       49.810858      47.900031      47.900031      0.0034935886   0.022485673   -0.0097183798   0.015623381   -0.0051744625  -0.016433224    959.12206      71155.319    
    536000   536            1.0010313     -0.037017383    16.64004       1.5015323      21.107178      18.141573     -4.4671378      2273.5789      49.820562      47.904628      47.904628      0.015514531   -0.036802743   -0.089763937    0.045497943    0.084877357    0.013098029    966.11776      71132.222    
    540000   540            1.0007784     -0.046842437    16.62934       1.5011529      21.103423      18.130493     -4.4740827      3429.1194      49.830266      47.870512      47.870512     -0.033131792   -0.038542587   -0.068852932    0.032995297    0.0029711716  -0.012077931    973.11256      71109.299    
    544000   544            0.99963538    -0.016708718    16.631782      1.4994384      21.105881      18.13122      -4.4740988      3375.1542      49.83997       47.877659      47.877659     -0.056333778   -0.04309979     0.049307414    0.019094512   -0.0064592261   0.025199623    980.23671      71095.992    
    548000   548            1.0017657     -0.028786612    16.634325      1.5026339      21.107443      18.136959     -4.4731179      2806.888       49.849675      47.853534      47.853534     -0.024656671    0.013057697   -0.074760861    0.0094031906   0.0066803057   0.025444509    987.36784      71083.277    
    552000   552            0.99557569     0.0076974645   16.63611       1.493349       21.108008      18.129459     -4.471898       3595.8092      49.859379      47.868158      47.868158      0.0082701079  -0.018834252    0.033656538    0.029951511   -0.056208016   -0.0024674561   994.52232      71072.313    
    556000   556            0.9976295      0.011925634    16.628226      1.4964296      21.104843      18.124656     -4.476617       4107.9591      49.869083      47.84443       47.84443      -0.010706821    0.012994313    0.03348941    -0.006091854   -0.016536804   -0.024644982    1001.6768      71061.403    
    560000   560            1.0006703     -0.0049320017   16.638645      1.5009909      21.106677      18.139636     -4.4680322      2592.5431      49.878787      47.856825      47.856825     -0.015258498    0.01794502    -0.017482527    0.0048110437  -0.03113512    -0.0069072401   1008.8931      71054.898    
    564000   564            1.0006307      0.047774203    16.638053      1.5009314      21.105988      18.138984     -4.4679353      2679.953       49.888491      47.843397      47.843397      0.01897304     0.070630919    0.053718649   -0.030903918   -0.025957212   -0.011006565    1016.0446      71043.855    
    568000   568            0.99968113    -0.034922569    16.624558      1.4995071      21.105137      18.124065     -4.4805795      4228.8223      49.898195      47.818676      47.818676     -0.043450968   -0.039291171   -0.022025569    0.018580711   -0.015637104    0.070192831    1022.9964      71019.006    
    572000   572            1.0026143      0.013144235    16.628695      1.5039068      21.105535      18.132602     -4.4768407      3374.1889      49.907899      47.820677      47.820677      0.062479834   -0.051523555    0.028476426    0.04100469     0.022867211    0.014731951    1030.0601      71002.115    
    576000   576            1.0000861     -0.020456144    16.636927      1.5001145      21.104672      18.137042     -4.4677445      2939.56        49.917603      47.851035      47.851035     -0.062533521    0.017844224   -0.016679135    0.014327868   -0.018754255    0.03829779     1037.0757      70982.071    
    580000   580            1.0016061     -0.0050587529   16.64407       1.5023945      21.10809       18.146464     -4.4640201      1993.854       49.927307      47.850298      47.850298      0.035010196   -0.028023023   -0.022163432   -0.032073703   -0.053308167   -0.0063161015   1044.2728      70974.538    
    584000   584            0.99844293     0.0071901805   16.636269      1.4976498      21.107266      18.133918     -4.4709974      3300.2448      49.937011      47.799498      47.799498      0.04636295    -0.0025261587  -0.02226625     0.0046709447   0.0041089224   0.050424012    1051.4085      70962.871    
    588000   588            0.99871511     0.017815594    16.638012      1.498058       21.109922      18.13607      -4.4719105      3100.3287      49.946715      47.808993      47.808993      0.018177306    0.02657382     0.0086956569   0.049737456    0.036563206   -0.031500049    1058.5451      70951.323    
    592000   592            1.0027698      0.0052617345   16.635798      1.50414        21.111106      18.139938     -4.4753083      2724.2492      49.956419      47.788162      47.788162      0.02718778    -0.021382539    0.0099799622   0.00040915355 -0.01710843     0.037794868    1065.8366      70950.153    
    596000   596            0.999579      -0.0057225178   16.62571       1.4993539      21.10608       18.125064     -4.4803695      4268.6727      49.966123      47.770087      47.770087     -0.003877899    0.024120355   -0.037410009    0.021412002    0.030551713   -0.053887622    1072.9396      70936.427    
    600000   600            1.0003041     -0.020727948    16.634622      1.5004415      21.10578       18.135064     -4.4711574      3264.004       49.975827      47.797944      47.797944      0.021315748   -0.06492589    -0.018573703    0.022957761    0.030929029    0.012684467    1080.1315      70928.634    
    604000   604            0.99670521    -0.02694387     16.646068      1.4950432      21.108557      18.141111     -4.4624895      2664.1995      49.985531      47.821787      47.821787     -0.032549703   -0.027661777   -0.02062013    -0.0059101179  -0.022541301    0.014044397    1087.2575      70916.55     
    608000   608            0.99648773    -0.073662617    16.634709      1.494717       21.10517       18.129426     -4.4704618      3881.6232      49.995235      47.816873      47.816873     -0.098620735   -0.08264079    -0.039726326   -0.018381138    0.02493702    -0.074910572    1094.2932      70898.678    
    612000   612            0.99738434    -0.0095350138   16.639992      1.4960619      21.10638       18.136053     -4.4663888      3222.673       50.004939      47.802189      47.802189     -0.038196519   -0.0020485234   0.011640001   -0.02347354    -0.021221823   -0.050907066    1101.6438      70901.221    
    616000   616            1.0014044     -0.0032487693   16.64016       1.502092       21.109161      18.142252     -4.4690012      2607.7994      50.014643      47.797658      47.797658     -0.022392928   -0.029655291    0.042301911    0.018838438    0.00052033426  0.03028512     1108.6685      70882.793    
    620000   620            1.0030841      0.017079753    16.633276      1.5046115      21.108567      18.137888     -4.4752911      3075.0213      50.024347      47.759445      47.759445      0.055550987   -0.0093284801   0.0050167518   0.038779815    0.010321748    0.0085807154   1115.8387      70873.755    
    624000   624            1.0022213      0.016086954    16.631978      1.5033174      21.105918      18.135295     -4.4739395      3360.9647      50.034051      47.759679      47.759679     -0.0083791435   0.064914772   -0.008274766   -0.049525188    0.0436397     -0.012905119    1123.0296      70866.045    
    628000   628            1.0010805     -0.064671227    16.633718      1.5016061      21.106843      18.135324     -4.4731251      3378.1193      50.043755      47.763465      47.763465     -0.085099973   -0.07257752    -0.036336187   -0.02785337    -0.022703279    0.052363525    1130.2839      70862.324    
    632000   632            1.0020375     -0.052324159    16.631329      1.5030416      21.106337      18.134371     -4.4750074      3495.7215      50.053459      47.750108      47.750108     -0.096342274   -0.0025935855  -0.058036618   -0.043293288   -0.016752894   -0.020004508    1137.4739      70854.543    
    636000   636            1.0006426      0.012872228    16.628947      1.5009492      21.106987      18.129896     -4.47804        3974.335       50.063163      47.729551      47.729551     -0.0092581128   0.0098346305   0.038040165   -0.031573786    0.017090383    0.0064608448   1144.5748      70841.265    
    640000   640            0.99844881    -0.02452859     16.632345      1.4976586      21.109654      18.130004     -4.477309       3983.3786      50.072868      47.750019      47.750019     -0.026387708   -0.031951856   -0.015246206   -0.022654196    0.017468096   -0.016654152    1151.6012      70823.472    
    644000   644            0.99914976    -0.017226467    16.641529      1.49871        21.112321      18.140239     -4.4707921      2954.5685      50.082572      47.776947      47.776947     -0.016072658   -0.0031198467  -0.032486894   -0.020851408    0.049124506    0.015047053    1158.7223      70811.609    
    648000   648            0.99609682    -0.021496972    16.635515      1.4941307      21.105796      18.129646     -4.4702808      4060.3968      50.092276      47.750114      47.750114     -0.030480379   -0.01965264    -0.014357897   -0.00014105732 -0.025649469    0.001685522    1165.7483      70794.022    
    652000   652            0.99607321    -0.036053816    16.633256      1.4940952      21.103802      18.127351     -4.4705459      4315.4923      50.10198       47.770854      47.770854      0.014609395   -0.067118655   -0.055652187    0.0071854223   0.035983987   -0.0017434953   1172.8899      70783.546    
    656000   656            1.0008206     -0.077337145    16.633459      1.5012163      21.10485       18.134676     -4.4713908      3585.0215      50.111684      47.743845      47.743845     -0.13287402    -0.066853777   -0.032283642    0.028041551   -0.015913462   -0.0022118381   1179.9689      70769.351    
    660000   660            1.0000399      0.010195763    16.636549      1.5000452      21.106481      18.136595     -4.4699315      3408.42        50.121388      47.731567      47.731567      0.11231128    -0.028499849   -0.053224142   -0.0089931626   0.029177975   -0.024104465    1187.0489      70755.306    
    664000   664            1.0020834      0.027955637    16.638409      1.5031105      21.106489      18.14152      -4.4680795      2923.63        50.131092      47.713231      47.713231      0.02303486     0.072364526   -0.011532474    0.016051504   -0.028781721   -0.011509439    1194.272       70749.827    
    668000   668            0.99959083     0.018726992    16.632326      1.4993716      21.10752       18.131698     -4.4751944      3950.3913      50.140796      47.707731      47.707731     -0.019624078    0.018724449    0.057080606    0.026761547    0.041110576    0.06723161     1201.4798      70743.421    
    672000   672            0.99972803    -0.010121109    16.638494      1.4995774      21.104508      18.138072     -4.4660138      3317.3791      50.1505        47.745213      47.745213     -0.0037810312  -0.029720676    0.0031383787   0.034941931   -0.042422208    0.010391487    1208.6869      70736.963    
    676000   676            1.0024289      0.024806223    16.641569      1.5036287      21.108413      18.145197     -4.4668439      2607.1295      50.160204      47.72529       47.72529       0.01280653     0.017381976    0.044230162    0.0014089542  -0.02028215     0.0065879928   1215.6902      70718.64     
    680000   680            0.9989093      0.0033332575   16.634572      1.4983493      21.108213      18.132921     -4.4736414      3885.6444      50.169908      47.714294      47.714294      0.005156957   -0.048924198    0.053767014   -0.011828873    0.0046004778   0.018534271    1222.8632      70710.265    
    684000   684            0.99815508     0.030467749    16.637616      1.497218       21.109368      18.134834     -4.4717513      3710.1342      50.179612      47.718616      47.718616      0.0026703616   0.057774708    0.030958178   -0.014649597   -0.024140798    0.0031274985   1230.0759      70704.187    
    688000   688            1.0012325      0.050341026    16.641771      1.5018341      21.108873      18.143605     -4.4671022      2831.2742      50.189316      47.724345      47.724345      0.040743194    0.062066949    0.048212935   -0.028503625   -0.01520973    -0.0092685292   1237.0624      70685.169    
    692000   692            0.99770808    -0.017284532    16.638723      1.4965475      21.106186      18.13527      -4.4674632      3705.4833      50.19902       47.710786      47.710786     -0.070103045   -0.027069713    0.045319161    0.018129404    0.0090364124  -0.015217922    1244.1619      70672.713    
    696000   696            1.0030373     -0.017511786    16.632198      1.5045413      21.10305       18.136739     -4.4708521      3574.9606      50.208724      47.697994      47.697994     -0.074517842    0.030770429   -0.0087879453   0.0019369777   0.032200141   -0.0078174069   1251.4176      70669.134    
    700000   700            1.0006955      0.018876315    16.64674       1.5010287      21.1079        18.147768     -4.4611602      2464.9555      50.218428      47.713323      47.713323     -0.039676167    0.025364981    0.070940132   -0.02378214     0.014813807    0.0088427184   1258.5978      70661.276    
    704000   704            1.0009226      0.027224867    16.64059       1.5013692      21.107168      18.141959     -4.4665777      3080.6491      50.228132      47.681707      47.681707      0.084991941   -0.012842284    0.0095249432   0.014575736    0.013119258    0.036616976    1265.7786      70653.461    
    708000   708            1.0042949     -0.0067727884   16.627908      1.5064277      21.104502      18.134336     -4.4765936      3881.6266      50.237836      47.655637      47.655637     -0.0020788774  -0.020156144    0.0019166559   0.052557902    0.041355352   -0.0082050737   1272.943       70644.74     
    712000   712            0.99748482    -0.023066805    16.628551      1.4962126      21.103167      18.124763     -4.474616       4882.9722      50.24754       47.653517      47.653517     -0.012712232   -0.035538767   -0.020949416    0.054388829    0.027041942    0.00658464     1280.0481      70632.769    
    716000   716            0.99633356    -0.022989124    16.633391      1.4944858      21.108787      18.127877     -4.4753962      4583.3911      50.257244      47.659083      47.659083     -0.071031937    0.020244981   -0.018180416    0.067349214   -0.01573458     0.010789726    1287.2795      70627.779    
    720000   720            1.0002536     -0.029704351    16.637592      1.5003658      21.106493      18.137958     -4.4689007      3570.1462      50.266948      47.671211      47.671211     -0.074462846   -0.010011523   -0.0046386846   0.0041593885  -0.0063136641   0.024457517    1294.4998      70622.155    
    724000   724            0.99410441    -0.024270613    16.638084      1.4911421      21.110469      18.129227     -4.4723847      4485.2426      50.276652      47.655656      47.655656     -0.014398728   -0.03196472    -0.026448391   -0.018476652    0.025544928   -0.033460307    1301.6584      70613.17     
    728000   728            0.99769251     0.022988817    16.634239      1.4965242      21.106338      18.130763     -4.4720989      4346.9748      50.286357      47.640333      47.640333      0.03439452    -0.012494205    0.047066137    0.058412408    0.04055144    -0.0037428844   1308.8421      70605.56     
    732000   732            1.0041008     -0.043732737    16.629228      1.5061366      21.105898      18.135365     -4.4766695      3895.2271      50.296061      47.632936      47.632936     -0.0059629027  -0.042090489   -0.08314482     0.012990768   -0.025799685    0.014751123    1315.8995      70591.176    
    736000   736            0.99947503     0.026771763    16.633214      1.4991979      21.107173      18.132412     -4.473959       4218.0444      50.305765      47.621157      47.621157     -0.046024413    0.088008092    0.038331611    0.0077445519   0.035314762    0.031253644    1322.9383      70575.881    
    740000   740            0.99687138     0.041948419    16.630884      1.4952925      21.10713       18.126177     -4.4762455      4876.8703      50.315469      47.616614      47.616614      0.016163272    0.041451517    0.068230468   -0.0042047099  -0.0011956162   0.026464074    1330.0079      70562.309    
    744000   744            0.99918807     0.044415727    16.636819      1.4987675      21.111555      18.135586     -4.4747364      3932.1525      50.325173      47.614808      47.614808      0.082935961   -0.025026872    0.075338093    0.01337181    -0.016805869   -0.0076866172   1337.083       70549.098    
    748000   748            0.99886325     0.11972434     16.643506      1.4982803      21.110512      18.141786     -4.4670065      3316.679       50.334877      47.619912      47.619912      0.093705658    0.14077697     0.12469041     0.024019997    0.00050826195 -0.048081311    1344.2482      70540.684    
    752000   752            0.99889999    -0.03330312     16.628918      1.4983354      21.104805      18.127254     -4.4758869      4826.2699      50.344581      47.610557      47.610557     -0.008711722   -0.068308139   -0.0228895     -0.028589463    0.0019084709  -0.03328796     1351.3108      70526.921    
    756000   756            0.99772277    -0.00022150372  16.631222      1.4965696      21.107677      18.127792     -4.4764551      4791.0002      50.354285      47.6098        47.6098       -0.012977308   -0.018065915    0.030378711   -0.021693734   -0.036751239   -0.010287886    1358.3706      70513.088    
    760000   760            1.0005116     -0.0078107681   16.639928      1.5007527      21.112259      18.140681     -4.4723305      3489.7724      50.363989      47.610037      47.610037      0.032051376   -0.023722577   -0.031761103   -0.02546085     0.017797429   -0.0020930706   1365.541       70505.039    
    764000   764            1.0008634     -0.010239662    16.633772      1.5012804      21.107578      18.135052     -4.4738061      4086.9225      50.373693      47.583988      47.583988      0.052714106   -0.10529969     0.021866597    0.021829954   -0.01588123     0.012369736    1372.8865      70505.989    
    768000   768            0.99996961    -0.0075985215   16.627496      1.4999398      21.106221      18.127436     -4.4787247      4887.2102      50.383397      47.567523      47.567523     -0.043261498    0.016892531    0.0035734027  -0.035098235    0.0024428653   0.0095983594   1380.1386      70502.078    
    772000   772            1.0005122      0.034299105    16.624655      1.5007536      21.104268      18.125408     -4.4796137      5114.9532      50.393101      47.569243      47.569243      0.034629686    0.012391248    0.055876379    0.03630637     0.007214527    0.0083224063   1387.3046      70493.765    
    776000   776            1.0011275     -0.023723201    16.636151      1.5016766      21.11248       18.137827     -4.476329       3862.2124      50.402805      47.593398      47.593398     -0.0027407171   0.00463509    -0.073063975    0.042386685    0.018145914    0.032404862    1394.4776      70485.812    
    780000   780            0.99324159     0.0015579927   16.641378      1.4898479      21.110068      18.131226     -4.4686905      4559.1268      50.412509      47.611887      47.611887     -0.021701971    0.0064199588   0.01995599     0.020820555    0.016806284   -0.022611502    1401.5549      70473.056    
    784000   784            0.99361843    -0.060654058    16.630008      1.4904131      21.105045      18.120421     -4.4750367      5686.6006      50.422213      47.603733      47.603733     -0.07601845    -0.065030188   -0.040913535    0.0053866686   0.039536522    0.0076824527   1408.7781      70467.658    
    788000   788            1.0026593     -0.034104419    16.63084       1.5039742      21.104749      18.134815     -4.4739087      4231.3617      50.431917      47.585087      47.585087     -0.034636732   -0.032620279   -0.035056246    0.0044394994   0.0016504617   0.011836478    1415.9195      70458.166    
    792000   792            0.99901948     0.00030333894  16.637398      1.4985146      21.10812       18.135912     -4.4707225      4138.5136      50.441621      47.571161      47.571161      0.012812299   -0.01928358     0.0073812985  -0.029426809    0.00029786674 -0.021687598    1423.0476      70448.042    
    796000   796            0.99763039     0.022820349    16.625121      1.496431       21.104504      18.121552     -4.4793825      5630.0568      50.451325      47.536824      47.536824      0.04830127    -0.0080612489   0.028221026   -0.01640186    -0.037090205   -0.0083137289   1430.35        70446.536    
    800000   800            0.99511684     0.040133719    16.632489      1.4926607      21.106561      18.12515      -4.474072       5281.4578      50.461029      47.561004      47.561004     -0.010433335    0.050001105    0.080833386    0.002056685   -0.011503547   -0.010451899    1437.4443      70434.769    
    804000   804            1.0009592     -0.039585809    16.633217      1.5014241      21.106402      18.134641     -4.4731845      4328.8851      50.470733      47.568224      47.568224     -0.015092857   -0.014397342   -0.089267229   -0.014644224   -0.011452222   -0.008245031    1444.6989      70430.868    
    808000   808            1.0038104     -0.022730845    16.637665      1.5057009      21.105979      18.143366     -4.4683137      3454.2426      50.480437      47.57539       47.57539      -0.0047319115  -0.027568628   -0.035891996   -0.022259094    0.020768288    0.00018696287  1451.7626      70417.675    
    812000   812            0.99988921    -0.0060461933   16.649884      1.4998192      21.104667      18.149703     -4.4547825      2824.6294      50.490141      47.613373      47.613373     -0.059601839    0.017671222    0.023792037   -0.01688273    -0.036352653    0.027564298    1458.7159      70399.211    
    816000   816            1.0002737     -0.011372414    16.634469      1.5003959      21.103748      18.134865     -4.4692793      4365.2982      50.499845      47.563465      47.563465      0.021119935   -0.028147919   -0.027089257   -0.0055848969   0.058933056   -0.032894223    1466.084       70400.779    
    820000   820            1.0010826     -0.026180198    16.635129      1.5016093      21.107521      18.136739     -4.4723919      4193.3147      50.50955       47.546152      47.546152      0.032670622   -0.029546851   -0.081664366    0.042017703    0.0096570881   0.029131538    1473.076       70384.288    
    824000   824            0.99727423     0.012140218    16.638364      1.4958968      21.105772      18.134261     -4.4674074      4467.4282      50.519254      47.572606      47.572606     -0.012849072    0.0048456198   0.044424105   -0.021226244   -0.027809453   -0.011838581    1480.4168      70384.475    
    828000   828            1.0030193      0.0069824181   16.638599      1.5045142      21.109542      18.143113     -4.4709429      3579.9875      50.528958      47.535198      47.535198      0.056957861   -0.016295596   -0.019715011   -0.015433889   -0.047996668   -0.035717417    1487.4483      70369.959    
    832000   832            0.99937258     0.025848336    16.637195      1.4990443      21.110041      18.136239     -4.4728461      4304.3445      50.538662      47.527594      47.527594      0.06034123    -0.012655619    0.029859399    0.013498226   -0.020823839    6.8271909e-05  1494.7826      70369.767    
    836000   836            0.99872347     0.036766037    16.633726      1.4980706      21.10812       18.131796     -4.4743945      4780.0115      50.548366      47.510181      47.510181     -0.015277197    0.056910017    0.06866529    -0.004851697    0.017301345   -0.00068996633  1501.8144      70355.332    
    840000   840            1.000931       0.037555288    16.637472      1.5013818      21.111082      18.138854     -4.4736105      4076.5563      50.55807       47.521951      47.521951      0.043814803    0.015670597    0.053180462   -0.039110996    0.040357152    0.01714521     1508.9494      70345.786    
    844000   844            1.0040129      0.056299744    16.645209      1.5060046      21.111447      18.151213     -4.4662379      2829.732       50.567774      47.53042       47.53042       0.070560468   -0.0023195421   0.10065831    -0.021140033    0.013242442    0.0091254138   1516.0955      70336.773    
    848000   848            1.0013611      0.014217347    16.635055      1.5020269      21.103849      18.137082     -4.4687943      4297.6119      50.577478      47.517103      47.517103      0.0038039042   0.021371607    0.01747653     0.0064774099   0.0034858706   0.028821037    1523.4481      70337.313    
    852000   852            1.0024642      0.01755398     16.633211      1.5036817      21.105177      18.136893     -4.4719654      4336.6347      50.587182      47.504615      47.504615     -0.057648798    0.031763386    0.078547351    0.026487204   -0.0091076385   0.027362545    1530.6718      70331.853    
    856000   856            1.001095       0.0023164704   16.64676       1.5016278      21.107572      18.148388     -4.4608125      3178.7419      50.596886      47.530776      47.530776      0.025848932    0.020832094   -0.039731614   -0.0080211885  -0.028770774   -0.011502396    1537.6387      70314.637    
    860000   860            0.9994359     -0.0091300127   16.638865      1.4991392      21.104624      18.138004     -4.4657591      4262.768       50.60659       47.53329       47.53329       0.024105294   -0.087703251    0.036207919   -0.010481761   -0.016323269    0.021755617    1544.7641      70304.729    
    864000   864            0.99725502    -0.019217833    16.637485      1.4958679      21.107396      18.133353     -4.4699114      4759.6694      50.616294      47.506617      47.506617     -0.024366386   -0.017743355   -0.015543758   -0.023069592    0.033008099    0.038617615    1551.8991      70295.281    
    868000   868            0.9959546     -0.011537241    16.641399      1.4939173      21.105818      18.135316     -4.4644194      4578.1063      50.625998      47.512934      47.512934     -0.011674541   -0.059004245    0.036067063    0.060224236    0.058246087   -0.016931769    1559.1167      70289.579    
    872000   872            1.0009058     -0.014385982    16.643304      1.5013441      21.107594      18.144648     -4.4642905      3641.5237      50.635702      47.509459      47.509459     -0.045485595    0.021315461   -0.018987813   -0.01383412     0.017477132    0.019426994    1566.2793      70281.394    
[...]
  39768000   39768          1.0023675     -0.098429344    16.643931      1.5035367      21.107964      18.147468     -4.4640321      125264.94      144.99783      28.082334      28.082334     -0.31046587     0.02598798    -0.010810136   -0.011402783    0.039848828    0.012172854    77079.92       449.67163    
  39772000   39772          1.0009833     -0.061022607    16.657216      1.5014603      21.109563      18.158676     -4.4523476      124125.98      145.00753      28.103961      28.103961     -0.28199912     0.07593746     0.022993843    0.043225593   -0.034013991    0.01046658     77088.841      441.92537    
  39776000   39776          0.99908851    -0.17180687     16.647497      1.4986181      21.106863      18.146116     -4.4593659      125422.91      145.01723      28.101768      28.101768     -0.43341555    -0.073410175   -0.0085948836  -0.030804309   -0.020920127   -0.028771164    77097.753      434.17882    
  39780000   39780          0.99935821    -0.094589045    16.640972      1.4990227      21.104207      18.139995     -4.4632347      126059.69      145.02694      28.090959      28.090959     -0.29362008     0.086833566   -0.076980624    0.011337363    0.050964921    0.027427549    77106.826      426.43292    
  39784000   39784          1.0017322     -0.15614629     16.648856      1.5025837      21.109336      18.15144      -4.46048        124896.34      145.03664      28.10146       28.10146      -0.45971457     0.025989802   -0.034714107   -0.047063759   -0.018950135   -0.0052045511   77115.847      418.68648    
  39788000   39788          1.0050091     -0.18865827     16.65891       1.5074989      21.109179      18.166409     -4.4502685      123372.07      145.04635      28.118057      28.118057     -0.39675414    -0.059511817   -0.10970886    -0.025579712    1.3564623e-05 -0.041216497    77124.926      410.94009    
  39792000   39792          0.99895752    -0.09534111     16.648638      1.4984217      21.108854      18.147059     -4.4602168      125364.71      145.05605      28.093867      28.093867     -0.30572421     0.0027924624   0.016908414   -0.054669578    0.02454835     0.030014795    77134.076      403.1938     
  39796000   39796          0.99820797    -0.13660193     16.642574      1.4972973      21.105493      18.139871     -4.4629198      126110.62      145.06576      28.089286      28.089286     -0.3222336      0.015008594   -0.10258078     0.040061994   -0.011442327    0.0034424602   77142.877      395.44545    
  39800000   39800          0.99922498    -0.10921523     16.647214      1.4988228      21.106639      18.146037     -4.4594247      125488.36      145.07546      28.098278      28.098278     -0.29433379    -0.041814882    0.0085029887   0.036194909   -0.0035049871  -0.009466383    77151.721      387.69709    
  39804000   39804          1.0017311     -0.11116938     16.656681      1.502582       21.107864      18.159263     -4.4511832      124142.66      145.08516      28.103463      28.103463     -0.38259817     0.056824539   -0.0077344918  -0.038930312    0.035493172    0.0045402838   77160.669      379.94903    
  39808000   39808          0.99679845    -0.076628843    16.654892      1.4951831      21.112813      18.150075     -4.4579211      125094.23      145.09487      28.091304      28.091304     -0.28329459    -0.0077747978   0.061182862   -0.024037926   -0.066740161    0.019972967    77169.573      372.20051    
  39812000   39812          0.99905412    -0.10083894     16.646584      1.4985666      21.106339      18.145151     -4.4597553      125608.15      145.10457      28.086607      28.086607     -0.32405793     0.0035473854   0.017993711   -0.001213403    0.0054181258   0.023118425    77178.706      364.45285    
  39816000   39816          0.995819      -0.13861627     16.641605      1.4937139      21.10838       18.135319     -4.466775       126625.6       145.11428      28.078076      28.078076     -0.34682357    -0.016699739   -0.052325507   -0.00022914102  0.0060749975  -0.0069550855   77187.966      356.70549    
  39820000   39820          0.99660288    -0.12887693     16.654278      1.4948897      21.110853      18.149168     -4.4565749      125215.73      145.12398      28.092622      28.092622     -0.34669739    -0.042277208    0.0023438178   0.013329883    0.015560105   -0.014508282    77196.911      348.9564     
  39824000   39824          1.0015954     -0.12644283     16.647695      1.5023784      21.106959      18.150073     -4.4592638      125132.36      145.13368      28.094003      28.094003     -0.35526594    -0.02713857     0.0030760374   0.029408974    0.0081610303   0.0089636903   77205.817      341.2069     
  39828000   39828          0.99682004    -0.091279731    16.645009      1.4952155      21.106051      18.140225     -4.461042       126151.33      145.14339      28.081764      28.081764     -0.32723357     0.055150854   -0.0017564732   0.033621563   -0.0011733461  -0.027222375    77214.549      333.45642    
  39832000   39832          0.99825099    -0.10189251     16.651858      1.4973619      21.108273      18.14922      -4.4564149      125238.99      145.15309      28.089913      28.089913     -0.30375918     0.017053109   -0.018971456   -0.029783923   -0.016103779   -0.044057794    77223.608      325.70712    
  39836000   39836          1.0000218     -0.091718521    16.651511      1.5000181      21.106392      18.151529     -4.4548803      125012.02      145.1628       28.085026      28.085026     -0.23744637    -0.023830639   -0.013878558   -0.0085454162   0.0053374713  -0.044343412    77232.399      317.95646    
  39840000   39840          0.99741783    -0.089488309    16.645162      1.4961121      21.106457      18.141274     -4.4612956      126072.92      145.1725       28.077385      28.077385     -0.3838521      0.016910642    0.098476525    0.021561044   -0.00052747885 -0.010867351    77241.412      310.20647    
  39844000   39844          0.9988965     -0.12625479     16.646574      1.4983301      21.10899       18.144904     -4.4624168      125710.16      145.1822       28.080359      28.080359     -0.34317641    -0.017546494   -0.018041454   -0.024795718   -0.01714441    -0.0048640496   77250.569      302.4568     
  39848000   39848          1.0009453     -0.078541685    16.649126      1.5014034      21.10468       18.15053      -4.4555533      125143.31      145.19191      28.086071      28.086071     -0.31645839     0.0058097257   0.075023607    0.018976335   -0.0017952924   0.0053299554   77259.523      294.70607    
  39852000   39852          1.0107411     -0.063558791    16.649859      1.5160968      21.110228      18.165955     -4.460369       123571.51      145.20161      28.073211      28.073211     -0.25702386     0.04098256     0.025364933   -0.050603588   -0.01978838     0.040163938    77268.579      286.95548    
  39856000   39856          1.0037102     -0.11868698     16.649307      1.5055506      21.110869      18.154858     -4.4615622      124718.84      145.21132      28.070854      28.070854     -0.34398997    -0.029636257    0.017565284   -0.0093266      0.0060911652  -0.0079947494   77277.5        279.20414    
  39860000   39860          0.99787027    -0.13912578     16.647552      1.4967908      21.107679      18.144343     -4.4601273      125805.98      145.22102      28.072702      28.072702     -0.39795546    -0.015916945   -0.0035049238   0.033580323    0.03026467     0.015949764    77286.318      271.45219    
  39864000   39864          1.0009091     -0.09986621     16.64863       1.501349       21.107077      18.149979     -4.4584477      125237.72      145.23072      28.086203      28.086203     -0.30079347    -0.0019430903   0.0031379274   0.011548782   -0.01188876     0.0315904      77295.187      263.70022    
  39868000   39868          1.0058622     -0.15718589     16.645162      1.5087786      21.102432      18.153941     -4.4572697      124841.08      145.24043      28.08556       28.08556      -0.37951504    -0.038496832   -0.053545791    0.0091334561   0.03893728    -1.5219302e-05  77304.063      255.94804    
  39872000   39872          0.99862603    -0.12129589     16.645398      1.4979244      21.108121      18.143323     -4.4627224      125939.35      145.25013      28.070844      28.070844     -0.35692518     0.016363862   -0.023326364   -0.043700225    0.038381459    0.013263047    77313.188      248.19643    
  39876000   39876          1.0026403     -0.13605004     16.640319      1.5039458      21.106638      18.144264     -4.4663192      125852.08      145.25984      28.063074      28.063074     -0.34478718    -0.036477365   -0.026885581    0.056259359   -0.034022059    0.030712439    77322.125      240.44396    
  39880000   39880          1.0027557     -0.17417547     16.656662      1.5041189      21.111578      18.160781     -4.4549154      124169.01      145.26954      28.090618      28.090618     -0.41956572    -0.062341548   -0.040619134   -0.059826639   -0.0064066608  -0.0023611434   77330.954      232.69094    
  39884000   39884          0.99973131    -0.14807534     16.649467      1.4995823      21.107139      18.14905      -4.4576715      125380.75      145.27924      28.081048      28.081048     -0.33212062    -0.078966187   -0.033139209    0.039619419   -0.017812077   -0.028090266    77340.025      224.93839    
  39888000   39888          1.0020216     -0.16973487     16.640106      1.5030178      21.1051        18.143123     -4.4649938      125997.18      145.28895      28.070532      28.070532     -0.362977      -0.083254504   -0.062973114   -0.011151906    0.0023004576   0.016519154    77349.049      217.18546    
  39892000   39892          0.99145079    -0.14145102     16.643324      1.4871617      21.105415      18.130485     -4.4620907      127302.4       145.29865      28.07121       28.07121      -0.37688184    -0.02646       -0.021011214   -0.0061120122  -0.019179751   -0.019374285    77358.112      209.43237    
  39896000   39896          0.9942341     -0.1187342      16.649973      1.4913366      21.10532       18.14131      -4.4553467      126202.61      145.30836      28.081367      28.081367     -0.39604461     0.0024125984   0.037429398    0.0070479822   0.0046731264   0.0048872062   77367.293      201.67933    
  39900000   39900          0.99975073    -0.089726121    16.650984      1.4996115      21.108922      18.150596     -4.457938       125260.5       145.31806      28.076173      28.076173     -0.27956293     0.0077580713   0.0026264992   0.0096908093  -0.0053188441   0.019009128    77376.148      193.92518    
  39904000   39904          0.99729026    -0.16781177     16.652661      1.4959208      21.110639      18.148582     -4.4579773      125476.87      145.32776      28.070486      28.070486     -0.42562364    -0.086561293    0.0087496202   0.014941026   -0.025775008    4.3353382e-05  77384.933      186.17065    
  39908000   39908          0.99758063    -0.14055954     16.6401        1.4963563      21.107682      18.136457     -4.4675811      126729.18      145.33747      28.050072      28.050072     -0.36739623    -0.036900686   -0.017381721   -0.052650072   -0.0012624095  -0.025586825    77393.747      178.41597    
  39912000   39912          1.000918      -0.12265172     16.643382      1.5013623      21.10858       18.144745     -4.4651977      125889.09      145.34717      28.052579      28.052579     -0.37250087     0.0034951834   0.0010505272  -0.011673531   -0.0050687177   0.017997206    77402.611      170.6612     
  39916000   39916          1.0000548     -0.13588559     16.648014      1.5000676      21.110486      18.148082     -4.4624726      125556.8       145.35688      28.05698       28.05698      -0.39415944    -0.024940767    0.011443448    0.025303193    0.017282049    0.020831161    77411.448      162.90614    
  39920000   39920          0.99533433    -0.083772699    16.644841      1.4929869      21.109501      18.137828     -4.4646602      126617.18      145.36658      28.039408      28.039408     -0.28903291     0.068330358   -0.03061555    -0.01734553    -0.03994134    -0.034509987    77420.322      155.15095    
  39924000   39924          1.0016946     -0.10528574     16.643288      1.5025272      21.107847      18.145815     -4.4645591      125808.11      145.37628      28.041835      28.041835     -0.3678322      0.024635509    0.02733946     0.022328533    0.055904758   -0.014699953    77429.426      147.39596    
  39928000   39928          1.0011969     -0.13563303     16.646379      1.5017808      21.107419      18.14816      -4.46104        125577.6       145.38599      28.065146      28.065146     -0.34074787    -0.052164767   -0.013986449    0.035167177   -0.014414468   -0.032723139    77438.33       139.64035    
  39932000   39932          1.0003309     -0.10313798     16.647393      1.5004817      21.108846      18.147875     -4.4614529      125616.45      145.39569      28.046491      28.046491     -0.4032262      0.053257826    0.04055445    -0.016410504    0.043460759   -0.014500478    77447.197      131.88444    
  39936000   39936          0.99906921    -0.10512294     16.639796      1.4985892      21.106864      18.138385     -4.4670677      126598.59      145.4054       28.039072      28.039072     -0.3952318      0.048275442    0.031587541    0.0048423414  -0.00032052167  0.032716425    77456.08       124.12833    
  39940000   39940          1.0001309     -0.044186058    16.646085      1.5001818      21.108729      18.146267     -4.4626439      125800.18      145.4151       28.041325      28.041325     -0.24557953     0.085175403    0.027845958    0.025825504    0.027241772    0.020766413    77465.007      116.37207    
  39944000   39944          1.001457      -0.058223186    16.651067      1.5021708      21.106853      18.153238     -4.4557853      125095.42      145.4248       28.055635      28.055635     -0.28867972     0.075681795    0.038328369   -0.028698216    0.0530709     -0.040410791    77473.881      108.61549    
  39948000   39948          1.0006093     -0.081153051    16.640648      1.5008993      21.106366      18.141547     -4.4657182      126303.02      145.43451      28.041869      28.041869     -0.31433794     0.068387521    0.0024912664  -0.014158056   -0.0029341408   0.031491603    77483.029      100.85905    
  39952000   39952          1.0019615     -0.15208668     16.637483      1.5029276      21.105515      18.140411     -4.4680325      126429.22      145.44421      28.040361      28.040361     -0.36749541    -0.064317871   -0.024446774   -0.014175655   -0.033842196    0.0017934477   77492.257      93.102432    
  39956000   39956          0.99436097    -0.17124663     16.653388      1.4915269      21.110696      18.144915     -4.4573077      125977.24      145.45392      28.06064       28.06064      -0.38491626    -0.076348829   -0.052474814    0.033116163   -0.0017829702  -0.047790176    77501.309      85.34532     
  39960000   39960          1.0041133     -0.18631941     16.651091      1.5061553      21.109954      18.157247     -4.4588624      124722.82      145.46362      28.065262      28.065262     -0.41069517    -0.068841339   -0.079421728   -0.029363896    0.012421152    0.023618003    77510.174      77.587762    
  39964000   39964          1.0025536     -0.12322556     16.655846      1.5038157      21.108785      18.159661     -4.452939       124484.89      145.47333      28.064064      28.064064     -0.36741689    -0.031826488    0.029566698   -0.0086167698  -0.010254194    0.0078004648   77519.137      69.83007     
  39968000   39968          1.0007363     -0.1491109      16.642642      1.5010899      21.101895      18.143732     -4.4592531      126126.79      145.48303      28.065458      28.065458     -0.38222235    -0.030785504   -0.03432485     0.0034759033   0.0074213985  -0.0052842307   77528.156      62.072182    
  39972000   39972          0.99709514    -0.077621283    16.647617      1.4956281      21.105949      18.143245     -4.4583323      126186.43      145.49273      28.049637      28.049637     -0.31395147     0.064861154    0.016226463   -0.010938181   -0.010210053   -0.031689409    77537.179      54.314045    
  39976000   39976          1.0014291     -0.17977415     16.648679      1.502129       21.107413      18.150808     -4.4587339      125420.68      145.50244      28.050823      28.050823     -0.43155906    -0.085424184   -0.0223392      0.003000216    0.068548845    0.001715417    77546.24       46.555677    
  39980000   39980          1.0018133     -0.17527941     16.650915      1.5027053      21.1073        18.153621     -4.4563851      125142.18      145.51214      28.063349      28.063349     -0.42611824    -0.048777707   -0.050942269    0.013566735   -0.0031642841   0.0013596246   77555.304      38.79705     
  39984000   39984          0.99865572    -0.10834436     16.639696      1.497969       21.107392      18.137665     -4.467696       126786.93      145.52185      28.03814       28.03814      -0.3397817     -0.0093356117   0.024084245   -0.0012709214  -0.00057661288 -0.057693035    77563.978      31.038007    
  39988000   39988          0.99950128    -0.11008052     16.64684       1.4992373      21.105312      18.146077     -4.4584721      125934.37      145.53155      28.048327      28.048327     -0.39127785     0.047690284    0.013346017   -0.0023075538   0.0096504199  -0.047106673    77572.85       23.278839    
  39992000   39992          1.0015623     -0.21295679     16.652279      1.5023289      21.107588      18.154608     -4.4553087      125069.48      145.54125      28.05351       28.05351      -0.44207583    -0.10470551    -0.092089037   -0.028905889    0.013759333   -0.0089322632   77581.923      15.519489    
  39996000   39996          1.0047265     -0.079718124    16.651628      1.507075       21.109222      18.158703     -4.4575936      124659.59      145.55096      28.050261      28.050261     -0.32255164     0.05958034     0.023816927   -0.016232692   -0.01706336     0.04187776     77590.771      7.759853     
  40000000   40000          1.002264      -0.11475618     16.64257       1.5033814      21.107905      18.145951     -4.4653352      125975.9       145.56066      28.030895      28.030895     -0.39053032    -0.012164553    0.058426331    0.028598176    0.014053539    0.036743596    77599.826      0            
Loop time of 77599.8 on 18 procs for 40000000 steps with 102500 atoms

Performance: 44536.182 tau/day, 515.465 timesteps/s
92.5% CPU use with 18 MPI tasks x 1 OpenMP threads

MPI task timing breakdown:
Section |  min time  |  avg time  |  max time  |%varavg| %total
---------------------------------------------------------------
Pair    | 9985.6     | 10344      | 10714      | 238.8 | 13.33
Bond    | 11494      | 11700      | 12620      | 232.3 | 15.08
Neigh   | 241.89     | 255.63     | 270.41     |  47.0 |  0.33
Comm    | 13826      | 14938      | 15436      | 284.0 | 19.25
Output  | 913.72     | 913.76     | 913.8      |   0.1 |  1.18
Modify  | 37060      | 37505      | 37854      | 123.3 | 48.33
Other   |            | 1943       |            |       |  2.50

Nlocal:        5694.44 ave        5724 max        5637 min
Histogram: 1 1 0 0 1 2 3 5 3 2
Nghost:        9984.78 ave       10046 max        9933 min
Histogram: 3 1 3 0 1 2 6 1 0 1
Neighs:              0 ave           0 max           0 min
Histogram: 18 0 0 0 0 0 0 0 0 0

Total # of neighbors = 0
Ave neighs/atom = 0
Ave special neighs/atom = 6.6262829
Neighbor list builds = 1331824
Dangerous builds = 0

# GENERATION RESTART
write_restart ./out.deform.restart
System init for write_restart ...
Generated 0 of 36 mixed pair_coeff terms from geometric mixing rule
write_data    ./out.deform.data pair ij
System init for write_data ...
Generated 0 of 36 mixed pair_coeff terms from geometric mixing rule
Total wall time: 21:33:22
