LAMMPS (15 Sep 2022)
OMP_NUM_THREADS environment is not set. Defaulting to 1 thread. (src/comm.cpp:98)
  using 1 OpenMP thread(s) per MPI task
package gpu 0 binsize 12.0
# LAMMPS Script for deform
# Generated 12/17/2022

# INIT PARAMS & READ CONF
include   "/work_bgfs/h/harshad/simulation_9/neat_polymer/config_4/system.init"
# UNITS
units		lj
dimension	3
atom_style	bond

# INPUT FILE
pair_style	lj/cut 2.5
bond_style	fene
read_data /work_bgfs/h/harshad/simulation_9/neat_polymer/config_4/quiescent/thermal_replicates/1.npt.data
Reading data file ...
  orthogonal box = (-24.25001 -24.25001 -24.25001) to (24.25001 24.25001 24.25001)
  2 by 3 by 3 MPI processor grid
  reading atoms ...
  102500 atoms
  reading velocities ...
  102500 velocities
  scanning bonds ...
  2 = max bonds/atom
  reading bonds ...
  104500 bonds
Finding 1-2 1-3 1-4 neighbors ...
  special bond factors lj:    0        0        0       
  special bond factors coul:  0        0        0       
     4 = max # of 1-2 neighbors
     4 = max # of 1-3 neighbors
     8 = max # of 1-4 neighbors
    12 = max # of special neighbors
  special bonds CPU = 0.005 seconds
  read_data CPU = 0.983 seconds
include   "/work_bgfs/h/harshad/simulation_9/neat_polymer/config_4/system.settings"
# ATOM TYPE
mass  1  1.0 #backbone
mass  2  1.0 #endmer
mass  3  1.0 #crosslinker
mass  4  1.0 #outer shell
mass  5  1.0 #inner shell 2
mass  6  1.0 #inner-most shell
mass  7  1.0 #center bead
mass  8  1.0 #endmer post crosslinking
mass  9  1.0 #crosslinker post crosslinking

# BOND
bond_coeff * 30.0 1.50 1.0 1.0
special_bonds lj 0.0 1.0 1.0
Finding 1-2 1-3 1-4 neighbors ...
  special bond factors lj:    0        1        1       
  special bond factors coul:  0        0        0       
     4 = max # of 1-2 neighbors
     4 = max # of 1-3 neighbors
     8 = max # of 1-4 neighbors
    12 = max # of special neighbors
  special bonds CPU = 0.003 seconds

# PAIR
pair_coeff  1*9 1*9 1.0 1.0 2.5

pair_modify  shift yes
neigh_modify delay 1 check yes

# MAKE GROUPS
group polymer type 1 2 3 8 9
102500 atoms in group polymer
#group ins     type 1
#group strand  type 1 2 8
#group ends    type 2 8
#group xlinks  type 3 9
#group filler  type 4 5 6 7

# INPUTS FROM SBATCH
variable Temp          equal 1.0
variable gamma_total   equal 2.0
variable gamma_rate    equal 0.00005
variable dt            equal 0.001
variable Nfreq         equal 4000
variable Nrepeat_2     equal 100
variable Nevery_1      equal 1
variable Nrepeat_1     equal 1

variable Run           equal ${gamma_total}/${gamma_rate}/${dt}
variable Run           equal 2/${gamma_rate}/${dt}
variable Run           equal 2/5e-05/${dt}
variable Run           equal 2/5e-05/0.001

# RUN OPTIONS
run_style verlet
timestep  ${dt}
timestep  0.001

# RESTART
restart  ${Nfreq} cycle.1.restart cycle.2.restart
restart  4000 cycle.1.restart cycle.2.restart

## SAVE RESTARTS EVERY 10% EXTENSION
#variable RestFreq      equal 0.1/${gamma_rate}/${dt}
#restart  ${RestFreq} deform.*.restart
#
# COMPUTE ke/atom, pe/atom, pxx/atom, position and time-avg
compute     ke_atm          all     ke/atom
compute     p_atm           all     stress/atom NULL
compute     pe_atm          all     pe/atom
compute     ebond_atm       all     pe/atom bond
compute     posit_atm       all     property/atom x y z
fix         avg_ke_atm_1    all     ave/atom ${Nevery_1} ${Nrepeat_1} ${Nfreq} c_ke_atm
fix         avg_ke_atm_1    all     ave/atom 1 ${Nrepeat_1} ${Nfreq} c_ke_atm
fix         avg_ke_atm_1    all     ave/atom 1 1 ${Nfreq} c_ke_atm
fix         avg_ke_atm_1    all     ave/atom 1 1 4000 c_ke_atm
fix         avg_pxx_atm_1   all     ave/atom ${Nevery_1} ${Nrepeat_1} ${Nfreq} c_p_atm[*]
fix         avg_pxx_atm_1   all     ave/atom 1 ${Nrepeat_1} ${Nfreq} c_p_atm[*]
fix         avg_pxx_atm_1   all     ave/atom 1 1 ${Nfreq} c_p_atm[*]
fix         avg_pxx_atm_1   all     ave/atom 1 1 4000 c_p_atm[*]
fix         avg_pe_atm_1    all     ave/atom ${Nevery_1} ${Nrepeat_1} ${Nfreq} c_pe_atm
fix         avg_pe_atm_1    all     ave/atom 1 ${Nrepeat_1} ${Nfreq} c_pe_atm
fix         avg_pe_atm_1    all     ave/atom 1 1 ${Nfreq} c_pe_atm
fix         avg_pe_atm_1    all     ave/atom 1 1 4000 c_pe_atm
#fix         avg_posit_atm_1 all     ave/atom ${Nevery_1} ${Nrepeat_1} ${Nfreq} c_posit_atm[1] c_posit_atm[2] c_posit_atm[3]
dump        dump_1 all custom ${Nfreq} ${out_dir}traj.${Nevery_1}_${Nrepeat_1}_${Nfreq}.xyz mol type x y z f_avg_ke_atm_1 f_avg_pe_atm_1 f_avg_pxx_atm_1[*]
dump        dump_1 all custom 4000 ${out_dir}traj.${Nevery_1}_${Nrepeat_1}_${Nfreq}.xyz mol type x y z f_avg_ke_atm_1 f_avg_pe_atm_1 f_avg_pxx_atm_1[*]
dump        dump_1 all custom 4000 /shares_bgfs/dssimmons_data/harshad/deform/neat_polymer/config_4/1_deform/work_bgfs--h--harshad--simulation_9--neat_polymer--config_4--1_deform--traj.${Nevery_1}_${Nrepeat_1}_${Nfreq}.xyz mol type x y z f_avg_ke_atm_1 f_avg_pe_atm_1 f_avg_pxx_atm_1[*]
dump        dump_1 all custom 4000 /shares_bgfs/dssimmons_data/harshad/deform/neat_polymer/config_4/1_deform/work_bgfs--h--harshad--simulation_9--neat_polymer--config_4--1_deform--traj.1_${Nrepeat_1}_${Nfreq}.xyz mol type x y z f_avg_ke_atm_1 f_avg_pe_atm_1 f_avg_pxx_atm_1[*]
dump        dump_1 all custom 4000 /shares_bgfs/dssimmons_data/harshad/deform/neat_polymer/config_4/1_deform/work_bgfs--h--harshad--simulation_9--neat_polymer--config_4--1_deform--traj.1_1_${Nfreq}.xyz mol type x y z f_avg_ke_atm_1 f_avg_pe_atm_1 f_avg_pxx_atm_1[*]
dump        dump_1 all custom 4000 /shares_bgfs/dssimmons_data/harshad/deform/neat_polymer/config_4/1_deform/work_bgfs--h--harshad--simulation_9--neat_polymer--config_4--1_deform--traj.1_1_4000.xyz mol type x y z f_avg_ke_atm_1 f_avg_pe_atm_1 f_avg_pxx_atm_1[*]
dump_modify dump_1 append yes sort id

# COMPUTE a separate pe and ke for each group, AVG & SAVE
compute   pe_polymer    all reduce  sum c_pe_atm
compute   ke_polymer    all reduce  sum c_ke_atm
compute   ebond_polymer all reduce  sum c_ebond_atm
compute   pxx_polymer   all reduce  sum c_p_atm[1] c_p_atm[2] c_p_atm[3]
compute   pxy_polymer   all reduce  sum c_p_atm[4] c_p_atm[5] c_p_atm[6]
fix 		  avgEnergy     all     ave/time ${Nevery_1} ${Nrepeat_2} ${Nfreq} c_pe_polymer c_ke_polymer c_ebond_polymer c_pxy_polymer[1] c_pxy_polymer[2] c_pxy_polymer[3] file energy.avg.csv
fix 		  avgEnergy     all     ave/time 1 ${Nrepeat_2} ${Nfreq} c_pe_polymer c_ke_polymer c_ebond_polymer c_pxy_polymer[1] c_pxy_polymer[2] c_pxy_polymer[3] file energy.avg.csv
fix 		  avgEnergy     all     ave/time 1 100 ${Nfreq} c_pe_polymer c_ke_polymer c_ebond_polymer c_pxy_polymer[1] c_pxy_polymer[2] c_pxy_polymer[3] file energy.avg.csv
fix 		  avgEnergy     all     ave/time 1 100 4000 c_pe_polymer c_ke_polymer c_ebond_polymer c_pxy_polymer[1] c_pxy_polymer[2] c_pxy_polymer[3] file energy.avg.csv
fix       avgPxx_all    all     ave/time ${Nevery_1} ${Nfreq} ${Nfreq}     c_pxx_polymer[1] c_pxx_polymer[2] c_pxx_polymer[3]                                           file pxx.all.avg.csv
fix       avgPxx_all    all     ave/time 1 ${Nfreq} ${Nfreq}     c_pxx_polymer[1] c_pxx_polymer[2] c_pxx_polymer[3]                                           file pxx.all.avg.csv
fix       avgPxx_all    all     ave/time 1 4000 ${Nfreq}     c_pxx_polymer[1] c_pxx_polymer[2] c_pxx_polymer[3]                                           file pxx.all.avg.csv
fix       avgPxx_all    all     ave/time 1 4000 4000     c_pxx_polymer[1] c_pxx_polymer[2] c_pxx_polymer[3]                                           file pxx.all.avg.csv

# TIME-AVG Ly
variable Ly equal ly
fix       avgLy         all     ave/time ${Nevery_1} ${Nfreq} ${Nfreq}     v_Ly  file Ly.avg.csv
fix       avgLy         all     ave/time 1 ${Nfreq} ${Nfreq}     v_Ly  file Ly.avg.csv
fix       avgLy         all     ave/time 1 4000 ${Nfreq}     v_Ly  file Ly.avg.csv
fix       avgLy         all     ave/time 1 4000 4000     v_Ly  file Ly.avg.csv

# SIMULATION FIXES
fix  npt        all npt temp ${Temp} ${Temp} 2.0 y 0 0 5 z 0 0 5 couple yz
fix  npt        all npt temp 1 ${Temp} 2.0 y 0 0 5 z 0 0 5 couple yz
fix  npt        all npt temp 1 1 2.0 y 0 0 5 z 0 0 5 couple yz
fix  mom        all momentum 10000 linear 1 1 1
fix  deform     all deform 1 x erate ${gamma_rate} remap x units box
fix  deform     all deform 1 x erate 5e-05 remap x units box

# THERMO
variable  thermo_frq equal ${Nfreq}
variable  thermo_frq equal 4000
thermo    ${thermo_frq}
thermo    4000
thermo_style  custom step time temp press pe ke ebond etotal epair ecouple lx ly lz pxx pyy pzz pxy pxz pyz cpu cpuremain

# deform
run ${Run}
run 40000000

CITE-CITE-CITE-CITE-CITE-CITE-CITE-CITE-CITE-CITE-CITE-CITE-CITE

Your simulation uses code contributions which should be cited:

- GPU package (short-range, long-range and three-body potentials): doi:10.1016/j.cpc.2010.12.021, doi:10.1016/j.cpc.2011.10.012, doi:10.1016/j.cpc.2013.08.002, doi:10.1016/j.commatsci.2014.10.068, doi:10.1016/j.cpc.2016.10.020, doi:10.3233/APC200086

@Article{Brown11,
 author = {W. M. Brown and P. Wang and S. J. Plimpton and A. N. Tharrington},
 title = {Implementing Molecular Dynamics on Hybrid High Performance Computers---Short Range Forces},
 journal = {Comput.\ Phys.\ Commun.},
 year =    2011,
 volume =  182,
 pages =   {898--911},
 doi =     {10.1016/j.cpc.2010.12.021}
}

@Article{Brown12,
 author = {W. M. Brown and A. Kohlmeyer and S. J. Plimpton and A. N. Tharrington},
 title = {Implementing Molecular Dynamics on Hybrid High Performance Computers - Particle-Particle Particle-Mesh},
 journal = {Comput.\ Phys.\ Commun.},
 year =    2012,
 volume =  183,
 doi =     {10.1016/j.cpc.2011.10.012},
 pages =   {449--459}
}

@Article{Brown13,
 author = {W. M. Brown and Y. Masako},
 title = {Implementing Molecular Dynamics on Hybrid High Performance Computers---Three-Body Potentials},
 journal = {Comput.\ Phys.\ Commun.},
 year =    2013,
 volume =  184,
 pages =   {2785--2793},
 doi =     {10.1016/j.cpc.2013.08.002},
}

@Article{Trung15,
 author = {T. D. Nguyen and S. J. Plimpton},
 title = {Accelerating Dissipative Particle Dynamics Simulations for Soft Matter Systems},
 journal = {Comput.\ Mater.\ Sci.},
 year =    2015,
 doi =     {10.1016/j.commatsci.2014.10.068},
 volume =  100,
 pages =   {173--180}
}

@Article{Trung17,
 author = {T. D. Nguyen},
 title = {{GPU}-Accelerated {T}ersoff Potentials for Massively Parallel
    Molecular Dynamics Simulations},
 journal = {Comput.\ Phys.\ Commun.},
 year =    2017,
 doi =     {10.1016/j.cpc.2016.10.020},
 volume =  212,
 pages =   {113--122}
}

@inproceedings{Nikolskiy19,
 author = {V. Nikolskiy and V. Stegailov},
 title = {{GPU} Acceleration of Four-Site Water Models in {LAMMPS}},
 booktitle = {Proceedings of the International Conference on Parallel
    Computing (ParCo 2019), Prague, Czech Republic},
 doi =     {10.3233/APC200086},
 year =    2019
}

CITE-CITE-CITE-CITE-CITE-CITE-CITE-CITE-CITE-CITE-CITE-CITE-CITE

Generated 0 of 36 mixed pair_coeff terms from geometric mixing rule
WARNING: Inconsistent image flags (src/domain.cpp:819)
Per MPI rank memory allocation (min/avg/max) = 11.62 | 11.63 | 11.64 Mbytes
   Step          Time           Temp          Press          PotEng         KinEng         E_bond         TotEng         E_pair        Ecouple           Lx             Ly             Lz            Pxx            Pyy            Pzz            Pxy            Pxz            Pyz            CPU          CPULeft    
         0   0              1.0027846      0.0091853854   16.633342      1.5041623      21.110907      18.137504     -4.4775649      0              48.500021      48.500021      48.500021      0.039901182   -0.034935745    0.022590719    0.0018197865  -0.016233587    0.018744419    0              0            
      4000   4              1.0053368     -0.00087958447  16.62718       1.5079904      21.108673      18.135171     -4.4814925      259.10291      48.509721      48.483209      48.483209      0.034850671    0.0014432594  -0.038932684   -0.044360962    0.023998213   -0.0098443894   8.1295853      81287.735    
      8000   8              0.99978219     0.091517043    16.627758      1.4996587      21.103795      18.127417     -4.4760375      1074.9624      48.519421      48.470266      48.470266      0.085592047    0.11039553     0.078563551    0.021480166    0.053241811    0.034834009    15.686939      78419.014    
     12000   12             1.0034272     -0.0038023209   16.634252      1.5051261      21.113802      18.139378     -4.4795504     -130.66162      48.529121      48.478412      48.478412     -0.045991056    0.021346345    0.013237749   -0.032316256   -0.010149286    0.03305629     23.346272      77797.564    
     16000   16             0.99865692    -0.015645248    16.634844      1.4979708      21.108665      18.132815     -4.4738208      562.20027      48.538821      48.495945      48.495945     -0.013991318   -0.07110913     0.038164704   -0.018595592    0.011654173    0.030539854    30.67861       76665.851    
     20000   20             0.9991042      0.041050223    16.634495      1.4986417      21.10507       18.133137     -4.470575       549.86552      48.548521      48.486865      48.486865      0.053781172    0.0013900642   0.067979433   -0.029836499    0.007849607    0.06718559     38.165005      76291.848    
     24000   24             1.0020748      0.045676189    16.632356      1.5030975      21.104281      18.135454     -4.4719254      333.05939      48.558221      48.476299      48.476299      0.042585363    0.054591645    0.039851558   -0.010501284    0.026328954   -0.010509108    45.659626      76053.719    
     28000   28             1.0028664      0.0043276602   16.642952      1.5042849      21.11091       18.147237     -4.4679582     -853.78424      48.567921      48.494497      48.494497      0.01310236     0.017801005   -0.017920384   -0.00052503634  0.038089966   -0.019647428    53.113498      75823.314    
     32000   32             1.002877       0.024205426    16.63507       1.5043009      21.106275      18.139371     -4.4712048     -26.980835      48.577621      48.47691       48.47691       0.0076418756   0.046834834    0.018139567    0.023768771   -0.010308557    0.013231516    60.761934      75891.657    
     36000   36             0.99831388    -0.044112449    16.636285      1.4974562      21.104066      18.133741     -4.4677807      570.75816      48.587321      48.490494      48.490494     -0.039798969   -0.025278722   -0.067259656   -0.027055043    0.03550658    -0.031431678    68.603261      76157.243    
     40000   40             1.0029169     -0.023952489    16.638077      1.5043606      21.101813      18.142438     -4.4637364     -299.98101      48.597021      48.497969      48.497969     -0.023199007   -0.0014852333  -0.047173228   -0.01729889    -0.0014255253   0.0060374936   76.100373      76024.274    
     44000   44             1.0009524      0.030437325    16.644448      1.501414       21.109628      18.145862     -4.4651804     -630.32966      48.606721      48.47318       48.47318      -0.0084869189   0.095426245    0.0043726504  -0.024489748    0.016081333   -0.00037426556  83.761829      76063.357    
     48000   48             0.99890172    -0.0086337767   16.634941      1.498338       21.106762      18.133279     -4.4718213      679.87004      48.616421      48.472704      48.472704     -0.042320876    0.014464067    0.0019554794   0.017565843   -0.0059340732   0.0023777005   91.341355      76026.455    
     52000   52             0.9960793     -0.014158236    16.63543       1.4941044      21.109097      18.129534     -4.4736672      1084.1578      48.626121      48.455496      48.455496     -0.00056729011 -0.049076453    0.0071690349   0.0052232892   0.013645397    0.054711931    98.881754      75964.007    
     56000   56             1.0023974      0.0036500557   16.632776      1.5035814      21.104485      18.136358     -4.4717084      405.33777      48.635821      48.453837      48.453837      0.024392869    0.02394117    -0.037383872    0.019685162   -0.035158041    0.0098772745   106.55925      76007.192    
     60000   60             1.0040131      0.0081284719   16.631355      1.506005       21.107887      18.13736      -4.4765321      322.97463      48.645521      48.436253      48.436253      0.013734101    0.012156727   -0.0015054125  -0.0065156154  -0.024933939   -0.024505862    114.16705      75997.199    
     64000   64             0.99918751    -0.0072039522   16.631331      1.4987666      21.105412      18.130098     -4.4740815      1087.7475      48.655221      48.446629      48.446629     -0.036545741    0.0069426689   0.0079912156  -0.0062007355   0.0094757686  -0.020123989    121.88433      76055.823    
     68000   68             0.99975291     0.0058987472   16.639865      1.4996147      21.106906      18.13948      -4.4670406      146.61261      48.664921      48.459613      48.459613      0.029823575   -0.030924454    0.01879712     0.0010782466   0.064984516    0.00827074     129.30923      75934.944    
     72000   72             0.99879124    -0.0059827472   16.639453      1.4981722      21.104739      18.137626     -4.4652856      357.44588      48.674621      48.455125      48.455125     -0.016122528   -0.0016798814  -0.00014583166  0.015516597    0.029300356   -0.019071958    136.76742      75845.135    
     76000   76             0.99693561    -0.029816607    16.629597      1.4953888      21.106814      18.124986     -4.4772173      1673.1496      48.684321      48.419809      48.419809     -0.069072774   -0.036086969    0.015709923   -0.026463558   -0.022580824   -0.015629391    144.54568      75932.128    
     80000   80             0.99985357    -0.0060248065   16.637576      1.4997657      21.104767      18.137342     -4.4671906      426.90683      48.694021      48.446244      48.446244     -0.018728286    0.025134616   -0.024480749    0.0025256266   0.011218808   -0.033869005    152.18301      75939.325    
     84000   84             0.99693364    -0.036751912    16.640795      1.4953859      21.109512      18.136181     -4.4687171      566.32321      48.703721      48.447251      48.447251     -0.048929392   -0.024962016   -0.036364326    0.017933068    0.046921551   -0.0092360043   159.80519      75937.904    
     88000   88             0.99729856     0.022295022    16.63947       1.4959332      21.11008       18.135403     -4.4706103      666.51448      48.713421      48.413513      48.413513     -0.0020703548   0.054286038    0.014669382   -0.01290661     0.024322035   -0.033069574    167.52801      75981.57     
     92000   92             1.0006131      0.014216063    16.631781      1.500905       21.106848      18.132686     -4.4750671      965.03871      48.723121      48.397934      48.397934     -0.0088750372  -0.013497736    0.065020963   -0.012238343    0.015831676   -0.0055191463   175.19557      75996.79     
     96000   96             1.0018504     -0.042009215    16.631811      1.502761       21.103872      18.134572     -4.4720617      792.22633      48.732821      48.415157      48.415157     -0.0097663471  -0.062963042   -0.053298257    0.014608688    0.023378634    0.05532393     182.84019      76000.572    
    100000   100            1.0001174     -0.053685065    16.644366      1.5001614      21.109398      18.144527     -4.4650318     -206.94079      48.742521      48.43924       48.43924      -0.0086904748  -0.082232933   -0.070131787    0.020232492   -6.9662961e-05 -0.0092121957   190.27924      75921.418    
    104000   104            0.99854989    -0.011730769    16.636075      1.4978102      21.103453      18.133885     -4.4673778      904.18614      48.752221      48.415684      48.415684      0.0053394974  -0.052791464    0.012259661   -0.0010089284   0.018413586    0.0072493744   197.83194      75891.375    
    108000   108            0.99584419    -0.11438511     16.639687      1.4937517      21.110742      18.133438     -4.4710553      970.82363      48.761921      48.425419      48.425419     -0.12244258    -0.14272285    -0.077989893    0.014988862    0.021677112   -0.017299083    205.6293       75953.372    
    112000   112            0.99945314     0.058683732    16.641032      1.4991651      21.110826      18.140197     -4.4697941      298.57153      48.771621      48.405326      48.405326      0.0022347544   0.095589196    0.078227245   -0.035238248    0.036272362    0.029083469    213.14196      75908.986    
    116000   116            0.99964848    -0.021214555    16.625373      1.4994581      21.107421      18.124831     -4.4820485      1894.1375      48.781321      48.34633       48.34633      -0.037845736    0.054934926   -0.080732854   -0.0079617449  -0.024773631    0.030869395    220.8161       75922.669    
    120000   120            1.0012151     -0.01475732     16.627281      1.501808       21.107409      18.129089     -4.480128       1478.4012      48.791021      48.347049      48.347049     -0.007390353   -0.068514203    0.031632595   -0.02152954    -0.021597005   -0.02990666     228.38013      75898.33     
    124000   124            0.99803391     0.013737232    16.642011      1.4970363      21.109067      18.139047     -4.467056       478.46886      48.800721      48.390245      48.390245      0.034223257   -0.057768406    0.064756845   -0.013530936    0.0055383274   0.0024236639   236.94655      76197.425    
    128000   128            0.99485246    -0.0029831656   16.646024      1.4922641      21.111479      18.138288     -4.4654545      577.33172      48.810421      48.384938      48.384938     -0.023849936    0.042445864   -0.027545425   -0.0055560458   0.033341316    0.0096268057   245.14811      76363.638    
    132000   132            1.0020507     -0.043002304    16.635647      1.5030613      21.109099      18.138708     -4.4734518      554.56298      48.820121      48.351294      48.351294     -0.09753973    -0.029261274   -0.0022059076   0.0043244525  -0.046977374    0.038686845    253.51587      76569.475    
    136000   136            1.0030168      0.059497321    16.641504      1.5045105      21.107177      18.146015     -4.4656729     -173.61137      48.829821      48.363931      48.363931      0.0391759      0.024869924    0.11444614     0.01883513    -0.011103451   -0.033483608    261.8356       76748.635    
    140000   140            0.99810451     0.045041271    16.636675      1.4971422      21.108542      18.133817     -4.4718678      1096.856       48.839521      48.325913      48.325913      0.0052189632   0.094607365    0.035297484    0.01804114     0.0091821233   0.035527238    270.15303      76916.428    
    144000   144            0.99964936     0.054045258    16.633991      1.4994594      21.107597      18.13345      -4.4736068      1154.9792      48.849221      48.329497      48.329497      0.04779189     0.028433183    0.085910701   -0.018636475   -0.013893541    0.020292742    278.46358      77072.53     
    148000   148            0.99945439     0.0055523292   16.65002       1.499167       21.11265       18.149187     -4.4626299     -436.69009      48.858921      48.376552      48.376552      0.03901234    -0.018438757   -0.0039165954   0.022467592    0.013732412   -0.00067093357  286.97142      77272.873    
    152000   152            0.9968575     -0.0042472233   16.646561      1.4952717      21.106712      18.141832     -4.4601509      338.12225      48.868621      48.379048      48.379048      0.045907912   -0.057789122   -0.00086045946  0.013353603    0.00076033661 -0.018093881    295.3874       77438.139    
    156000   156            1.0014501      0.017365555    16.631439      1.5021605      21.103283      18.1336       -4.4718434      1201.8299      48.878321      48.335468      48.335468      0.038548765   -0.013323081    0.026870982   -0.012575092    0.021551563    0.033743768    303.40833      77493.599    
    160000   160            1.0003248     -0.019457926    16.631642      1.5004726      21.106757      18.132114     -4.4751152      1374.7966      48.888021      48.304676      48.304676     -0.027007429   -0.037611671    0.0062453211   0.0046684908   0.010419597   -0.046714232    311.61747      77592.75     
    164000   164            0.998446      -0.018227344    16.626192      1.4976544      21.102522      18.123846     -4.4763297      2242.557       48.897721      48.319942      48.319942     -0.047138754    0.0036490865  -0.011192364   -0.0025661795   0.010211677   -0.019159984    320.46296      77841.235    
    168000   168            0.99681252    -0.028261454    16.638365      1.4952042      21.110479      18.13357      -4.4721136      1266.3941      48.907421      48.324501      48.324501     -0.050631038   -0.030340599   -0.0038127263   0.033758931    0.018100319    0.0026257823   329.09806      78027.583    
    172000   172            1.0015792     -0.007151789    16.636778      1.5023542      21.10766       18.139132     -4.4708819      716.80882      48.917121      48.33178       48.33178       0.012046886   -0.057967303    0.02446505     0.0083933028  -0.047619215    0.01047072     337.63393      78181.885    
    176000   176            0.99841614    -0.016468653    16.630559      1.4976096      21.104476      18.128168     -4.4739168      1860.8364      48.926821      48.294493      48.294493      0.0450549     -0.029771148   -0.064689711   -0.0068639909   0.013082515   -0.0023590932   345.95787      78280.831    
    180000   180            1.0014472      0.026915162    16.629878      1.5021562      21.1033        18.132034     -4.4734217      1484.9249      48.936521      48.290768      48.290768     -0.00678578     0.014347455    0.073183812   -0.028309452   -0.022029986   -0.0036168607   354.18685      78354.002    
    184000   184            0.99832015     0.01067525     16.637906      1.4974656      21.107815      18.135372     -4.4699088      1163.8682      48.946221      48.303298      48.303298      0.021682408    0.035385267   -0.025041924    0.066367386   -0.018671953   -0.0029165172   362.30851      78400.411    
    188000   188            1.001466       0.024709794    16.639883      1.5021844      21.107966      18.142068     -4.468083       498.2387       48.955921      48.309294      48.309294      0.024419206   -0.010763607    0.060473783   -0.0016732541   0.02114447     0.011825372    370.57295      78474.737    
    192000   192            0.99691828     0.0020693568   16.647937      1.4953628      21.106857      18.143299     -4.4589202      392.70615      48.965621      48.33083       48.33083       0.020084072   -0.027881392    0.01400539     0.0051181062  -0.023540824   -0.0068499155   378.83586      78545.303    
    196000   196            0.99748085     0.036125523    16.63702       1.4962067      21.103218      18.133226     -4.4661987      1445.3908      48.975321      48.286603      48.286603      0.017940186    0.071678818    0.018757566    0.010517789   -0.032866164    2.2882407e-06  387.03703      78600.112    
    200000   200            1.0031676      0.049565432    16.637595      1.5047367      21.108949      18.142331     -4.4713541      532.45416      48.985021      48.271029      48.271029      0.079900938    0.030507605    0.038287753   -0.0045343359  -0.027912296    0.0077442359   395.29863      78664.427    
    204000   204            1.0039956      0.025354615    16.639918      1.5059787      21.108968      18.145897     -4.4690496      187.2039       48.994721      48.294689      48.294689      0.052274276    0.0094279243   0.014361644    0.055848599    0.011053242   -0.065777778    403.58383      78730.502    
    208000   208            0.99701334    -0.033687687    16.641832      1.4955054      21.107138      18.137338     -4.4653051      1085.0734      49.004421      48.290922      48.290922     -0.048651923   -0.016722686   -0.035688453    0.00052060675 -0.03657569    -0.0060302347   411.70909      78763.116    
    212000   212            0.99985292     0.03611569     16.637484      1.4997648      21.108813      18.137249     -4.4713293      1114.8632      49.014121      48.267721      48.267721     -0.0098407633   0.031048244    0.08713959     0.029337644   -0.037887808    0.0032213383   420.12538      78848.815    
    216000   216            1.0025138      0.019146759    16.628761      1.5037561      21.105194      18.132517     -4.4764336      1620.2414      49.023821      48.246606      48.246606      0.03841323     0.039686551   -0.020659504    0.0060504944   0.006941013    0.0053584977   428.27011      78881.01     
    220000   220            1.0019684      0.021273037    16.624121      1.502938       21.101117      18.127059     -4.4769959      2199.8386      49.033521      48.246577      48.246577      0.05205464     0.024138049   -0.012373577   -0.0086119471  -0.02693537     0.028027687    436.63826      78952.136    
    224000   224            1.0022333      0.027301041    16.637153      1.5033352      21.108138      18.140489     -4.4709845      843.87183      49.043221      48.25446       48.25446       0.023901389   -0.011463531    0.069465265   -0.048408251   -0.043669339   -0.011260443    444.98077      79015.871    
    228000   228            1.0046877     -0.0075685993   16.625636      1.5070168      21.103896      18.132653     -4.4782597      1667.0962      49.052921      48.228233      48.228233     -0.032297424   -0.014822818    0.024414444   -0.019202442    0.0097184787   0.0010211759   453.44779      79098.797    
    232000   232            1.0012158     -0.017497818    16.625887      1.5018091      21.10576       18.127696     -4.4798728      2195.2915      49.062621      48.218204      48.218204     -0.060065198    0.025342948   -0.017771206   -0.006131635   -0.014233844    0.043997724    461.87185      79171.207    
    236000   236            0.99724074    -0.039955351    16.636191      1.4958465      21.11131       18.132037     -4.4751195      1771.1136      49.072321      48.214478      48.214478     -0.018882568   -0.064074164   -0.03690932     0.054461298    0.0017186615  -0.044658602    470.17988      79221.325    
    240000   240            1.0034348     -0.046819121    16.638231      1.5051375      21.107177      18.143369     -4.4689458      630.15877      49.082021      48.237314      48.237314     -0.01064411    -0.079368851   -0.050444401    0.0056209345  -0.022976836    0.026551181    478.6595       79297.924    
    244000   244            1.0022757     -0.013845211    16.636926      1.5033989      21.107254      18.140325     -4.4703274      962.29397      49.091721      48.237403      48.237403     -0.0060534238  -0.036595747    0.0011135368   0.027204017    0.0083298897   0.0066870329   486.88716      79330.68     
    248000   248            0.9975482     -0.066002298    16.634457      1.4963077      21.105957      18.130764     -4.4714999      1962.5091      49.101421      48.233787      48.233787     -0.10149688    -0.050099077   -0.046410937    0.026867623   -0.0022852359  -0.049142176    495.22547      79379.851    
    252000   252            0.99957492    -0.021641395    16.638444      1.4993478      21.106466      18.137792     -4.4680218      1262.8329      49.111121      48.252317      48.252317     -0.046527795   -0.014437001   -0.0039593894   0.009134564    0.032590197   -0.029708072    503.55703      79426.131    
    256000   256            1.0041422     -0.048616388    16.634261      1.5061986      21.107153      18.14046      -4.472892       1009.6444      49.120821      48.226032      48.226032     -0.029037755   -0.04027432    -0.076537091    0.0072973559   0.012743203    0.015794261    511.7102       79443.009    
    260000   260            0.99820426     0.0088710842   16.637655      1.4972918      21.107992      18.134946     -4.470337       1595.38        49.130521      48.208067      48.208067      0.045811382   -0.026228695    0.0070305657   0.052722525   -0.017953156    0.0076057034   519.9614       79474.101    
    264000   264            0.9979032     -0.012556377    16.634105      1.4968402      21.107298      18.130945     -4.473193       2025.687       49.140221      48.211139      48.211139     -0.035840513    0.0012609052  -0.0030895228  -0.067388401    0.0020562719   0.0081403035   528.25905      79510.992    
    268000   268            0.99815155    -0.0073567274   16.630208      1.4972127      21.104704      18.127421     -4.4744955      2407.1502      49.149921      48.202679      48.202679     -0.033376351    0.029042539   -0.017736371   -0.02707141    -0.0065895099  -0.010980695    536.77795      79579.334    
    272000   272            0.99853581     0.0014307439   16.641661      1.4977891      21.108882      18.13945      -4.467221       1194.6504      49.159621      48.221518      48.221518     -0.011256834   -0.0087353337   0.024284399   -0.048912491   -0.0064790695   0.0096849953   545.00802      79603.23     
    276000   276            0.99850964    -0.056517913    16.642461      1.4977498      21.106914      18.140211     -4.4644533      1137.501       49.169321      48.23902       48.23902      -0.084613489   -0.056199851   -0.028740398   -0.060223909    0.020672257    0.0317138      553.22308      79624.034    
    280000   280            0.99562299     0.053619059    16.643791      1.4934199      21.10732       18.137211     -4.4635293      1465.4666      49.179021      48.211716      48.211716     -0.0023100693   0.072545969    0.090621278   -0.043586964   -0.019382826   -0.015490752    561.55083      79659.996    
    284000   284            1.0047992     -0.0051756569   16.630332      1.507184       21.107903      18.137516     -4.477571       1454.4786      49.188721      48.176256      48.176256     -0.0025168433   0.0057550632  -0.018765191    0.0072232504   0.002699707   -0.019120234    569.74064      79675.42     
    288000   288            0.99498153    -0.024929732    16.633667      1.4924577      21.105926      18.126124     -4.4722599      2642.6058      49.198421      48.175849      48.175849     -0.060079523   -0.10052372     0.085814052   -0.0049047381   0.030426338   -0.035678277    577.8729       79682.252    
    292000   292            0.99947575     0.045538296    16.637806      1.499199       21.1072        18.137005     -4.4693938      1548.0225      49.208121      48.172469      48.172469      0.07495323     0.030893542    0.030768115   -0.037175871   -0.019133691   -0.0046526442   586.22109      79718.039    
    296000   296            0.99950207    -0.019925398    16.640194      1.4992385      21.104585      18.139432     -4.4643911      1319.6984      49.217821      48.165792      48.165792      0.011192198   -0.0089443501  -0.062024042   -0.033192771    0.0097266385   0.022726122    594.50176      79743.574    
    300000   300            1.0001418     -6.5929523e-05  16.625647      1.5001981      21.104078      18.125845     -4.4784303      2732.3227      49.227521      48.132307      48.132307     -0.017710063    0.031542057   -0.014029783    0.0032833198  -0.0091552217   0.018670982    602.83551      79775.232    
    304000   304            0.99810961     0.0032529642   16.62911       1.4971498      21.104591      18.12626      -4.475481       2710.143       49.237221      48.127781      48.127781     -0.016456913    0.032407249   -0.0061914428   0.035045362   -0.065636657    0.041852748    611.01994      79786.34     
    308000   308            0.99900435     0.049757619    16.636444      1.4984919      21.107735      18.134936     -4.4712906      1841.1516      49.246921      48.147053      48.147053      0.029366748    0.060589861    0.059316246    0.05424973     0.020863959    0.034615805    619.46721      79830.821    
    312000   312            0.99899228     0.035374885    16.640948      1.4984738      21.107372      18.139422     -4.466424       1401.9662      49.256621      48.160448      48.160448     -0.011196928    0.03918858     0.078133003   -0.02039346     0.034458427    0.028975788    627.62869      79837.589    
    316000   316            0.99636914     0.0092373941   16.634473      1.4945391      21.106489      18.129012     -4.4720156      2489.3814      49.266321      48.15878       48.15878      -0.027039266    0.018806537    0.035944912    0.0014136338  -0.011081813   -0.0091757201   635.77885      79842.557    
    320000   320            0.99760703    -0.029351184    16.631502      1.4963959      21.109499      18.127898     -4.4779964      2623.7762      49.276021      48.121673      48.121673      0.0024118794  -0.043474253   -0.046991177    0.043830909   -0.025543316   -0.0096839857   644.32472      79896.265    
    324000   324            1.0013227      0.07348837     16.636224      1.5019695      21.110949      18.138194     -4.4747245      1588.9269      49.285721      48.117863      48.117863      0.094277922    0.052950929    0.073236258   -0.067967187    0.012488963    0.0046709245   652.7364       79932.005    
    328000   328            1.0006023     -0.020228852    16.632172      1.5008887      21.105392      18.133061     -4.4732203      2135.2035      49.295421      48.120045      48.120045     -0.029591267   -0.050268529    0.019173242    0.0015119071  -0.0020790221   0.012903658    661.09076      79959.734    
    332000   332            0.99913921     0.01906837     16.624812      1.4986942      21.10422       18.123506     -4.4794083      3134.8341      49.305121      48.08377       48.08377       0.00083464424  0.038892445    0.017478022   -0.018549288    0.014162681   -0.010692308    669.27249      79965.968    
    336000   336            0.99755861     0.0040750433   16.640232      1.4963233      21.108539      18.136556     -4.4683072      1817.9548      49.314821      48.111319      48.111319      0.025304009   -0.034963024    0.021884145    0.014502526    0.044983519    0.0086401446   677.37694      79962.735    
    340000   340            1.001855      -0.024752692    16.635194      1.5027679      21.104864      18.137962     -4.4696695      1694.1717      49.324521      48.128472      48.128472     -0.076175099   -0.024150656    0.026067678    0.040028857   -0.018477519   -0.0097541298   685.66569      79980.886    
    344000   344            1.0039171     -0.034172052    16.640686      1.505861       21.107353      18.146547     -4.4666667      834.57806      49.334221      48.123157      48.123157     -0.059602758   -0.051032191    0.0081187918   0.010635578   -0.0085626099  -0.019033003    694.07541      80012.368    
    348000   348            0.9964255      0.0060242411   16.638651      1.4946237      21.110301      18.133274     -4.4716501      2215.4216      49.343921      48.101495      48.101495      0.028622971    0.021366882   -0.031917129    0.018263541    0.034800391   -0.00628273     702.50035      80044.666    
    352000   352            0.99944197    -0.032519261    16.631799      1.4991483      21.10462       18.130947     -4.4728211      2474.2765      49.353621      48.110151      48.110151     -0.056268627   -0.035885613   -0.0054035432   0.019659729   -0.024011709   -0.0014374914   710.7939       80061.24     
    356000   356            1.005003       0.035297379    16.637466      1.5074897      21.110607      18.144956     -4.4731405      1059.0974      49.363321      48.106369      48.106369      0.04644662     0.043864233    0.015581283    0.0071770397   0.044213413   -0.0039351171   719.31105      80102.156    
    360000   360            0.99807287    -0.039575187    16.642386      1.4970947      21.109731      18.139481     -4.467345       1640.7038      49.373021      48.114874      48.114874     -0.064217167   -0.076301338    0.021792945    9.8949745e-05 -0.0052571511  -0.037091543    727.48715      80104.419    
    364000   364            1.0000532     -0.062690102    16.635641      1.5000652      21.104432      18.135707     -4.4687903      2047.3855      49.382721      48.114212      48.114212     -0.035812392   -0.036684582   -0.11557333     0.022092014    0.036296193   -0.060133852    735.88411      80130.502    
    368000   368            0.99471869    -0.076058165    16.631485      1.4920635      21.105377      18.123549     -4.4738916      3314.2746      49.392421      48.104279      48.104279     -0.071350119   -0.05473603    -0.10208835    -0.021334907    0.022566037   -0.033421231    744.14673      80141.368    
    372000   372            0.99387498    -0.041598491    16.637087      1.4907979      21.108911      18.127885     -4.4718242      2890.0286      49.402121      48.08541       48.08541      -0.0736574     -0.032466907   -0.018671164    0.025522447    0.014247574    0.024001065    752.28623      80138.706    
    376000   376            1.0037856     -0.0024258157   16.629683      1.5056636      21.10443       18.135347     -4.4747471      2145.1725      49.411821      48.060005      48.060005      0.062255856   -0.059948589   -0.0095847141  -0.016735369   -0.011866204   -0.025821616    760.61542      80155.919    
    380000   380            0.99708941     0.038642695    16.633818      1.4956195      21.10708       18.129438     -4.473262       2770.7489      49.421521      48.045012      48.045012      0.06032975     0.052433106    0.0031652283  -0.024717899   -0.040459682    0.00074285174  769.10696      80189.521    
    384000   384            0.99937313    -0.020389548    16.622941      1.4990451      21.10426       18.121986     -4.4813184      3554.536       49.431221      48.020004      48.020004      0.024773051    0.0056466236  -0.091588317    0.038619528    0.003443585    0.015317546    777.46773      80208.755    
    388000   388            0.99874229     0.016532577    16.634863      1.4980988      21.108776      18.132962     -4.4739135      2450.3815      49.440921      48.049243      48.049243      0.016716259   -0.0058320838   0.038713555   -0.05769912    -0.028002903    0.019778313    785.7306       80217.424    
    392000   392            1.0017598      0.027487258    16.632662      1.502625       21.108999      18.135287     -4.4763368      2231.8117      49.450621      48.040494      48.040494      0.080225141    0.027353618   -0.025116984   -0.0010168406  -0.035635107   -0.0061416159   794.07104      80233.586    
    396000   396            0.99381271    -0.044034412    16.631664      1.4907045      21.106522      18.122369     -4.4748577      3575.9967      49.460321      48.033764      48.033764     -0.021524828   -0.051588567   -0.058989841    0.029032431    0.01212468    -0.0035235182   802.32987      80241.091    
    400000   400            0.99922212    -0.041215448    16.631604      1.4988186      21.103585      18.130423     -4.4719805      2770.6889      49.470021      48.035445      48.035445     -0.044141223   -0.072734394   -0.0067707275  -0.019717489   -0.04585794    -0.037067926    810.67723      80257.045    
    404000   404            1.0021875      0.016669146    16.638828      1.5032666      21.105837      18.142095     -4.4670087      1594.9847      49.479721      48.0564        48.0564       -0.00040526572  0.020111084    0.030301621    0.024843663   -0.03278251     0.01912086     818.89288      80259.61     
    408000   408            0.99972369     0.023672441    16.637278      1.4995709      21.107931      18.136849     -4.4706533      2153.2574      49.489421      48.034345      48.034345      0.0033223042   0.0065687297   0.061126289   -0.027248892    0.035748848    0.0098059163   827.25608      80276.282    
    412000   412            0.99846734    -0.03249337     16.630335      1.4976864      21.106985      18.128022     -4.4766498      3078.203       49.499121      48.012029      48.012029     -0.060300582   -0.014642606   -0.022536921   -0.011034912   -0.018460646    0.003986874    835.77396      80307.329    
    416000   416            1.0017609     -0.014136655    16.631895      1.5026266      21.104752      18.134522     -4.472857       2432.535       49.508821      48.035357      48.035357     -0.028232364   -0.021723587    0.0075459845  -0.030308392   -0.0097930165  -0.0041662964   844.07937      80317.399    
    420000   420            0.99958442     0.028955375    16.638393      1.499362       21.108001      18.137755     -4.4696078      2121.3142      49.518521      48.014216      48.014216      0.028069341    0.024069021    0.034727764   -0.015749734    0.008231108    0.0026945535   852.3568       80324.481    
    424000   424            0.99968803     0.041192358    16.634991      1.4995174      21.106189      18.134509     -4.4711978      2474.4579      49.528221      48.00512       48.00512       0.034215335    0.082506023    0.0068557153   0.025009343   -0.0088161667   0.0053804103   860.80139      80346.877    
    428000   428            1.0039127      0.040318168    16.636946      1.5058544      21.108768      18.1428       -4.471822       1644.8267      49.537921      47.998864      47.998864      0.0079012632   0.088971175    0.024082067   -0.033291797   -0.02296232    -0.03577054     869.08387      80353.708    
    432000   432            0.99911952     0.032288601    16.643329      1.4986647      21.110762      18.141993     -4.4674334      1748.055       49.547621      47.99124       47.99124       8.9213332e-05  0.069415071    0.027361518    0.019051412   -0.010360866    0.016057385    877.38758      80362.203    
    436000   436            1.0025746      0.0093191459   16.627756      1.5038472      21.103172      18.131604     -4.4754154      2832.6966      49.557321      47.989083      47.989083      0.0004103074   0.025862688    0.0016844417  -0.0070362201  -0.0061403594  -0.0034474906   885.71287      80372.349    
    440000   440            1.0030735     -0.00092432854  16.637439      1.5045956      21.104765      18.142034     -4.4673266      1784.1142      49.567021      48.012696      48.012696     -0.031282722   -0.012246066    0.040755802   -0.0085861964  -0.019354762   -0.013134236    894.15569      80392.726    
    444000   444            1.0002283      0.025654689    16.637521      1.5003278      21.108663      18.137849     -4.4711422      2232.8937      49.576721      48.003354      48.003354     -0.0063740534   0.029871438    0.053466683    0.048914342   -0.016105393   -0.015623536    902.41169      80395.939    
    448000   448            0.99800753    -0.03855656     16.636015      1.4969967      21.104974      18.133011     -4.468959       2749.1755      49.586421      47.999064      47.999064      0.015812819   -0.068957969   -0.062524531    0.0071023751  -0.032974727    0.0097240272   910.24672      80361.782    
    452000   452            1.0031535      0.0093153174   16.639698      1.5047155      21.107984      18.144413     -4.4682859      1600.3473      49.596121      47.981628      47.981628      0.013797572   -0.0050123836   0.019160764    0.0060060664   0.013087133   -0.030484209    917.88105      80310.53     
    456000   456            1.0022056     -0.043524148    16.640309      1.5032937      21.109101      18.143603     -4.4687926      1703.6113      49.605821      47.985027      47.985027     -0.042239612   -0.030210415   -0.058122419    0.0080424164   0.021260094   -0.0029437098   926.09318      80310.151    
    460000   460            0.99933169    -0.034754865    16.634769      1.4989829      21.102571      18.133752     -4.4678023      2733.7182      49.615521      47.980487      47.980487      0.0047060661  -0.014233314   -0.094737347   -0.029224784   -0.0036392087  -0.021703313    934.51424      80327.594    
    464000   464            1.0048014      0.027954476    16.63495       1.5071875      21.107559      18.142137     -4.4726099      1893.9861      49.625221      47.969675      47.969675      0.062350053   -0.0054404157   0.02695379     0.037229188   -0.0048826023   0.029860937    943.05618      80354.89     
    468000   468            0.99964166     0.062392968    16.633583      1.4994479      21.106237      18.133031     -4.4726537      2847.5893      49.634921      47.959454      47.959454      0.021619987    0.099142657    0.06641626     0.0085302342   0.013365073    0.025895921    951.88288      80405.629    
    472000   472            0.99301898    -0.016107071    16.637909      1.4895139      21.106817      18.127423     -4.4689082      3442.6111      49.644621      47.964231      47.964231     -0.041097712   -0.039545259    0.03232176    -0.022556249   -0.031169554   -0.02142386     960.53766      80440.959    
    476000   476            0.99947062    -0.038088064    16.637395      1.4991913      21.105151      18.136586     -4.4677565      2523.3603      49.654321      47.972948      47.972948     -0.065048674   -0.063649783    0.014434265   -0.0044613799  -0.036446465    0.0076398404   968.92639      80453.459    
    480000   480            0.9981404     -0.028609076    16.636113      1.497196       21.10735       18.133309     -4.4712367      2879.7003      49.664021      47.958046      47.958046     -0.044468295   -0.051798876    0.010439941   -0.00011688263 -0.019629285    0.016072705    977.40221      80472.782    
    484000   484            1.0040316      0.026679789    16.630282      1.5060328      21.107922      18.136314     -4.4776401      2591.6966      49.673721      47.93112       47.93112      -0.011524124    0.0084423911   0.0831211     -0.014953052   -0.020469231   -0.014274576    986.01215      80502.596    
    488000   488            1.0007889      0.010167805    16.646439      1.5011687      21.108688      18.147608     -4.4622488      1454.8329      49.683421      47.966051      47.966051      0.022613899   -0.014672004    0.022561519    0.0087570021  -0.012329092    0.018304768    994.48102      80520.357    
    492000   492            1.0009819      0.047727857    16.641726      1.5014582      21.109291      18.143184     -4.4675653      1928.4173      49.693121      47.93685       47.93685       0.021507572    0.066060305    0.055615693   -0.021961859    0.0014099907  -0.052743822    1003.2919      80565.157    
    496000   496            1.0027323     -0.0041854857   16.629393      1.5040838      21.105271      18.133477     -4.4758774      2943.1412      49.702821      47.917716      47.917716     -0.012710561    0.0092625306  -0.0091084265   0.04271692     0.012508218   -0.036577179    1011.5952      80568.666    
    500000   500            1.0016405     -0.0024885617   16.635375      1.5024461      21.105724      18.137821     -4.4703496      2518.5541      49.712521      47.931951      47.931951     -0.010553122    0.042903921   -0.039816484    0.0069063649  -0.045313981   -0.041658049    1020.3546      80608.011    
    504000   504            1.0026134     -0.042995872    16.638136      1.5039055      21.107338      18.142042     -4.4692017      2105.9912      49.722221      47.942958      47.942958     -0.073915715    0.016787608   -0.07185951     0.0090555238   0.024561289    0.010209713    1028.6826      80612.79     
    508000   508            0.99756438     0.013963128    16.632245      1.496332       21.106214      18.128577     -4.473969       3506.1837      49.731921      47.897855      47.897855      0.080432734    0.00021405027 -0.038757401   -0.004673573   -0.012926048   -0.004109478    1037.0507      80620.482    
    512000   512            1.001034      -0.0024636582   16.635047      1.5015363      21.107172      18.136583     -4.4721248      2705.6334      49.741621      47.90206       47.90206       0.0052033959   0.029568623   -0.042162994    0.0058829929  -0.0089391866  -0.032771774    1045.3191      80620.232    
    516000   516            1.0018395     -0.02913869     16.640495      1.5027445      21.111506      18.14324      -4.4710105      2044.0038      49.751321      47.908582      47.908582     -0.026482868   -0.0068307298  -0.054102474   -0.016786619    0.016518128   -0.033742052    1053.7351      80631.153    
    520000   520            0.99799444     0.0016610052   16.632776      1.4969771      21.104183      18.129753     -4.4714064      3446.3163      49.761021      47.891208      47.891208     -0.062653558    0.035257144    0.032379429   -0.015402667    0.0062549133  -0.0010865284   1062.5793      80674.289    
    524000   524            0.99985035    -0.0095566453   16.634829      1.4997609      21.107497      18.13459      -4.4726675      2970.6463      49.770721      47.890069      47.890069     -0.060786373   -0.0013716403   0.033488077    0.026903478   -0.014945868   -0.0084960874   1071.0369      80687.504    
    528000   528            1.0034972      0.054042068    16.636428      1.5052312      21.107871      18.141659     -4.4714426      2266.5453      49.780421      47.873144      47.873144      0.019917646    0.073309425    0.068899133   -0.0069243692  -0.020072108   -0.017970617    1079.6189      80709.692    
    532000   532            1.0005102     -0.0076122762   16.638713      1.5007506      21.108049      18.139464     -4.4693361      2511.6821      49.790121      47.889842      47.889842     -0.066842775    0.033183719    0.010822227   -0.0086845768   0.025019074   -0.043812392    1088.0019      80716.655    
    536000   536            1.0004398      0.022391216    16.634531      1.5006451      21.102683      18.135176     -4.4681516      2971.0914      49.799821      47.900981      47.900981     -0.00321479     0.077419012   -0.0070305736   0.022110707    0.037797853    0.0080215109   1096.4718      80729.782    
    540000   540            0.99989398     0.033405196    16.639925      1.4998263      21.106874      18.139752     -4.4669483      2522.7938      49.809521      47.896352      47.896352      0.044276673    0.0013372848   0.05460163     0.0055698162   0.0064296936   0.0028078189   1104.9884      80746.002    
    544000   544            1.0009951      0.00074694014  16.634489      1.5014779      21.107185      18.135966     -4.4726966      2931.2055      49.819221      47.88345       47.88345      -0.0098065225  -0.021553567    0.03360091     0.031437854   -0.011853584   -0.00036005584  1113.561       80765.926    
    548000   548            0.99756406    -0.058160243    16.631885      1.4963315      21.105054      18.128216     -4.4731687      3745.446       49.828922      47.884125      47.884125     -0.031338878   -0.071810411   -0.07133144     0.0016825337   0.031556702    0.0029337548   1122.1676      80787.876    
    552000   552            1.0015759      0.029379306    16.633404      1.5023492      21.108667      18.135753     -4.4752635      2992.984       49.838622      47.838122      47.838122      0.067724177   -0.009776621    0.030190361   -0.021569023    0.0074770564   0.020841861    1131.2792      80845.471    
    556000   556            1.0002479      0.052054397    16.634958      1.5003572      21.106141      18.135315     -4.4711837      3058.0439      49.848322      47.860106      47.860106      0.028164395    0.075071342    0.052927454    0.017188595   -0.0040693933   0.004282954    1140.008       80874.954    
    560000   560            1.0064946     -0.02608769     16.638231      1.5097272      21.107445      18.147958     -4.4692139      1782.4856      49.858022      47.8734        47.8734        0.0040139548  -0.062993379   -0.019283645   -0.0082208967  -0.017930837   -0.0042156153   1148.5215      80888.73     
    564000   564            1.0010563      0.043222334    16.635249      1.5015698      21.10843       18.136819     -4.4731803      2944.323       49.867722      47.83385       47.83385       0.04715591    -0.0011624422   0.083673533   -0.0016172348   0.023777489    0.044434381    1156.957       80896.734    
    568000   568            0.99897869    -0.0029624563   16.637469      1.4984534      21.106394      18.135923     -4.4689251      3056.2778      49.877422      47.834759      47.834759      0.020260047    0.001351729   -0.030499145    0.010574876    0.026758081    0.00042016216  1165.486       80910.994    
    572000   572            1.0045981     -0.0030673774   16.635616      1.5068824      21.106563      18.142498     -4.4709471      2402.0308      49.887122      47.866562      47.866562     -0.043843253    0.05662111    -0.021979989    0.014582936   -0.041070616   -0.001204536    1174.0341      80926.249    
    576000   576            0.9984334     -0.037808814    16.647239      1.4976355      21.105619      18.144874     -4.4583804      2179.2635      49.896822      47.886021      47.886021     -0.026060261   -0.060022402   -0.027343779    0.015828227    0.012742774    0.017512956    1182.5061      80935.975    
    580000   580            0.99494511     0.047737009    16.638406      1.4924031      21.108584      18.130809     -4.4701783      3641.0158      49.906522      47.834796      47.834796      0.096411996    0.031210572    0.015588459   -0.06468829     0.022129548   -0.030300197    1191.0104      80947.64     
    584000   584            1.0023928      0.02240054     16.634034      1.5035746      21.106608      18.137609     -4.4725743      2964.0907      49.916222      47.824794      47.824794      0.025283648    0.054365224   -0.012447253   -0.019416181    0.0054235334  -0.010820302    1199.5058      80958.425    
    588000   588            1.0012969     -0.0017783998   16.645005      1.5019306      21.107208      18.146936     -4.4622025      2028.7012      49.925922      47.849852      47.849852      0.037932729   -0.032466259   -0.01080167    -0.05347791     0.029862239    0.073530779    1207.9183      80963.396    
    592000   592            1.0015376     -0.062526774    16.642247      1.5022917      21.106553      18.144539     -4.4643058      2294.4456      49.935622      47.860514      47.860514     -0.060571303   -0.057470747   -0.069538271    0.003917394   -0.002371394    0.023639824    1216.368       80970.659    
    596000   596            0.99632084     0.013233053    16.638742      1.4944667      21.110072      18.133208     -4.4713302      3476.1248      49.945322      47.821126      47.821126      0.0040595707  -0.044416598    0.080056187    0.011945171    0.025884751   -0.048332021    1224.7909      80975.94     
    600000   600            0.99977238    -0.010298368    16.62772       1.4996439      21.106013      18.127364     -4.4782934      4095.2934      49.955022      47.793272      47.793272     -0.027524918    0.0082425515  -0.011612738    0.025875981    0.0045069821  -0.027250317    1233.4583      80997.094    
    604000   604            0.99923465    -0.020460112    16.629204      1.4988374      21.106559      18.128042     -4.4773546      4045.7406      49.964722      47.798627      47.798627     -0.014869404    0.052765744   -0.099276676    0.008657522    0.049352665   -0.02778526     1241.8666      81000.957    
    608000   608            0.99742961    -0.00082080733  16.639913      1.4961298      21.109504      18.136043     -4.469591       3245.8683      49.974422      47.816901      47.816901     -0.037318816    0.02018054     0.014675855   -0.047374171   -0.0111365     -0.013320978    1250.5322      81021.322    
    612000   612            0.99880848     0.061201243    16.642313      1.4981981      21.104629      18.140511     -4.4623164      2807.9147      49.984122      47.814188      47.814188      0.044224037    0.10714469     0.032234998    0.0061338505   0.002248475   -0.020122842    1259.0395      81031.122    
    616000   616            1.0001637      0.0080173383   16.633919      1.5002309      21.108849      18.13415      -4.47493        3480.2332      49.993822      47.780378      47.780378      0.0093092327  -0.0011561724   0.015898955    0.0025192993  -0.016724909   -0.0049856308   1267.5194      81038.934    
    620000   620            0.99707587    -0.0085325207   16.637579      1.4955992      21.109817      18.133178     -4.4722382      3600.0976      50.003522      47.781622      47.781622     -0.016350458   -0.0076934077  -0.0015536962  -0.0099957072  -0.063524338    0.034951252    1275.7415      81030.163    
    624000   624            1.0003668      0.042652627    16.642314      1.5005355      21.112298      18.14285      -4.4699843      2629.1413      50.013222      47.778018      47.778018      0.071106223    0.016845998    0.040005661   -0.011909514    0.012944709   -0.010394052    1284.3531      81045.976    
    628000   628            0.99888291     0.031480726    16.636145      1.4983097      21.105398      18.134455     -4.4692532      3509.2679      50.022922      47.784895      47.784895      0.037919145    0.065181976   -0.0086589431  -0.021994265   -0.054080436    0.00022264496  1292.9746      81062.096    
    632000   632            1.0015295     -0.041112203    16.638893      1.5022796      21.106828      18.141173     -4.4679345      2840.8484      50.032622      47.798123      47.798123     -0.023993994   -0.061018337   -0.03832428    -0.033247059    0.027098588   -0.031092037    1301.6735      81082.726    
    636000   636            1.002239       0.0071814309   16.642622      1.5033438      21.106894      18.145965     -4.4642725      2370.1728      50.042322      47.785158      47.785158     -0.013347253    0.046060669   -0.011169124    0.0099007106  -0.00051023356 -0.026726458    1310.1172      81087.194    
    640000   640            1.0021997      0.029065311    16.633519      1.5032849      21.10654       18.136804     -4.4730207      3329.2333      50.052022      47.768016      47.768016      0.020144031    0.026315247    0.040736656   -0.016715619    0.0089949364   0.015125273    1318.6414      81096.448    
    644000   644            0.99872409    -0.006087402    16.632944      1.4980715      21.106584      18.131015     -4.4736405      3942.9952      50.061722      47.748284      47.748284      0.0097422116  -0.030316394    0.0023119762  -0.031703034   -0.043438577    0.026807113    1326.9693      81093.485    
    648000   648            0.99740642     0.0018745417   16.627907      1.496095       21.104966      18.124002     -4.4770586      4682.1436      50.071422      47.754673      47.754673     -0.0062135068   0.02325561    -0.011418478    0.025055752    0.053631419   -0.0014527575   1335.5487      81105.727    
    652000   652            1.00107       -0.049818292    16.636268      1.5015904      21.107851      18.137858     -4.4715829      3282.301       50.081122      47.762658      47.762658     -0.040924648   -0.061366666   -0.047163562    0.02110935     0.020949587   -0.026605577    1344.1165      81117.021    
    656000   656            0.99824957    -0.022156624    16.636241      1.4973598      21.105508      18.133601     -4.4692671      3738.5692      50.090822      47.775699      47.775699      0.0039044261  -0.061403403   -0.008970895   -0.026811869    0.035344415   -0.05714521     1352.6902      81128.422    
    660000   660            0.99517434    -0.065115978    16.631791      1.4927469      21.106453      18.124538     -4.4746623      4687.6442      50.100522      47.73934       47.73934      -0.12515947    -0.025458776   -0.044729685   -0.024837867    0.026483881   -0.020302499    1361.1733      81134.18     
    664000   664            0.99945789     0.0088740527   16.630299      1.4991722      21.104146      18.129471     -4.4738465      4202.0374      50.110222      47.727269      47.727269     -0.0238473      0.027591842    0.022877617   -0.013774796    0.0064146967  -0.034862545    1369.7971      81148.102    
    668000   668            0.99853655    -0.050762326    16.639009      1.4977902      21.104009      18.1368       -4.4649995      3470.4691      50.119922      47.756227      47.756227     -0.049901937   -0.035537524   -0.066847518    0.022261237   -0.0083319364   0.031790344    1378.3227      81155.972    
    672000   672            0.99845589     0.036907997    16.633884      1.4976692      21.10727       18.131553     -4.4733867      4028.7798      50.129622      47.725461      47.725461      0.025154321    0.05712489     0.02844478    -0.0062585289   0.029645373   -0.0090880334   1386.6873      81154.222    
    676000   676            1.000314       0.019296725    16.626166      1.5004564      21.106585      18.126623     -4.4804191      4553.6922      50.139322      47.682063      47.682063      0.027723356    0.041068909   -0.010902089    0.043262098    0.056060945   -0.030105291    1395.2187      81162.101    
    680000   680            1.0016901     -0.040446504    16.633373      1.5025205      21.108586      18.135893     -4.4752134      3623.5165      50.149022      47.709742      47.709742     -0.028430686   -0.037268733   -0.055640093    0.02764052     0.0080629643  -0.017940329    1403.8133      81173.439    
    684000   684            1.0004242      0.013966068    16.635927      1.5006216      21.109353      18.136549     -4.4734254      3576.0285      50.158722      47.682268      47.682268      0.0030280947  -0.064612612    0.10348272    -0.00063725442  0.012613415    0.020236202    1412.3747      81182.64     
    688000   688            0.99954122     0.058091353    16.631632      1.4992972      21.106347      18.130929     -4.4747153      4171.7038      50.168422      47.679121      47.679121      0.057140699    0.017347548    0.099785812   -2.7760437e-05 -0.01412965     0.0063048057   1420.8312      81185.636    
    692000   692            0.99927862     0.01575189     16.639449      1.4989033      21.107919      18.138352     -4.46847        3431.1425      50.178122      47.700516      47.700516      0.004818721    0.042391551    4.5397208e-05  0.017575098    0.031748185    0.0050061796   1429.3013      81189.273    
    696000   696            1.0015633     -0.065064877    16.640891      1.5023303      21.10829       18.143221     -4.4673992      2952.3965      50.187822      47.717952      47.717952     -0.083111323   -0.11502115     0.0029378411  -0.0062230318  -0.083901971   -0.036177763    1438.0602      81209.076    
    700000   700            0.99665229     0.035503021    16.634245      1.4949638      21.108136      18.129209     -4.4738903      4408.7889      50.197522      47.672882      47.672882      0.018377962    0.047879395    0.040251706   -0.0042828247  -0.012797433   -0.045598601    1446.7114      81222.509    
    704000   704            0.99996605    -0.0053449633   16.628512      1.4999344      21.106224      18.128446     -4.477712       4506.9034      50.207222      47.66672       47.66672       0.00025660231 -0.032633716    0.016342224   -0.0088016657  -0.0099104465   0.0014259792   1455.1765      81225.307    
    708000   708            1.0022259      0.0061625759   16.634312      1.5033242      21.106795      18.137636     -4.4724831      3584.9934      50.216922      47.682089      47.682089     -0.0082013639   0.0019777175   0.024711374    0.0035757514   0.027366435   -0.013934849    1463.659       81228.941    
    712000   712            1.0011735     -0.035597728    16.638521      1.5017457      21.106088      18.140267     -4.4675669      3335.6786      50.226622      47.704005      47.704005     -0.046711462   -0.043753759   -0.016327964    0.02636806    -0.033417157   -0.021470917    1472.025       81226.009    
    716000   716            0.99736823     0.042775884    16.632707      1.4960377      21.103834      18.128744     -4.4711276      4536.7344      50.236322      47.660823      47.660823      0.06100394     0.027615588    0.039708125    0.0017977647   0.038598007   -0.026181958    1480.3866      81222.775    
    720000   720            1.0021425      0.030880149    16.63189       1.503199       21.107847      18.135089     -4.4759565      3906.6523      50.246022      47.641711      47.641711      0.04677851    -0.012511037    0.058372974    0.015156261    0.038557881    0.0099857712   1488.966       81231.369    
    724000   724            1.0012271     -0.062994172    16.634313      1.5018259      21.108846      18.136139     -4.4745333      3819.3719      50.255722      47.655771      47.655771     -0.093588444   -0.090733143   -0.0046609298   0.051702424   -0.02613536    -0.015582462    1497.4767      81236.043    
    728000   728            0.99790958     0.019505872    16.629666      1.4968498      21.104895      18.126515     -4.4752297      4825.8571      50.265422      47.647704      47.647704     -0.0077957276   0.048242972    0.018070372   -0.039235197   -0.053090535   -0.012378791    1506.145       81249.075    
    732000   732            0.99874984    -0.030464249    16.632611      1.4981101      21.105546      18.130722     -4.4729343      4415.2633      50.275122      47.644497      47.644497     -0.040177886   -0.030678459   -0.020536402    0.039845172   -0.0062588054   0.0010703747   1514.5252      81246.415    
    736000   736            1.0039253      0.014639588    16.634838      1.5058732      21.108232      18.140711     -4.4733938      3411.38        50.284822      47.656286      47.656286     -0.025637654    0.052222358    0.01733406     0.034366281    0.041627318   -0.014069116    1522.9736      81247.332    
    740000   740            0.99915887     0.050654678    16.637063      1.4987237      21.11107       18.135787     -4.4740068      3936.3988      50.294522      47.644313      47.644313      0.068497626    0.025512774    0.057953634   -0.012599023    0.054567093    0.018814996    1531.5825      81256.659    
    744000   744            0.99651823     0.095428298    16.636616      1.4947628      21.107515      18.131379     -4.470899       4408.6615      50.304222      47.612034      47.612034      0.077182709    0.15280405     0.05629814    -0.02390784    -0.003027639   -0.034317304    1540.1577      81264.022    
    748000   748            1.0039737      0.014575548    16.640488      1.5059459      21.110379      18.146434     -4.4698909      2885.4347      50.313922      47.643015      47.643015      0.048490555   -0.031956769    0.027192858   -0.021142317   -0.0017883032   0.0058740261   1548.7592      81272.59     
    752000   752            1.0028429      0.032799743    16.631798      1.5042497      21.105889      18.136047     -4.4740911      3970.1942      50.323622      47.616344      47.616344      0.035240768    0.044908551    0.01824991     0.012833602    0.0063677921  -0.013547346    1557.2875      81277.153    
    756000   756            1.0021571     -0.01008308     16.628558      1.5032209      21.105662      18.131778     -4.4771041      4427.6731      50.333322      47.621794      47.621794     -0.0053816594  -0.047798022    0.02293044    -0.037709065    0.023421198    0.0057648182   1566.0304      81292.72     
    760000   760            0.99851204     0.010758379    16.638829      1.4977535      21.10459       18.136583     -4.4657608      3955.7175      50.343022      47.652664      47.652664     -0.030406342    0.015732037    0.046949442    0.013833246   -0.015146551   -0.019181263    1574.6127      81299.743    
    764000   764            0.99862635     0.026268358    16.646634      1.4979249      21.109838      18.144559     -4.4632036      3158.1345      50.352722      47.651024      47.651024      0.019370674    0.042324506    0.017109895    0.0081281      0.020700049    0.026418187    1582.9734      81295.213    
    768000   768            0.99846538    -0.018596931    16.633623      1.4976835      21.104649      18.131307     -4.471026       4536.3939      50.362422      47.612401      47.612401     -0.056323073    0.00048429904  4.7979718e-05 -0.0091928727  -0.029295031    0.014743152    1591.5743      81302.922    
    772000   772            0.99771492     0.05417083     16.630866      1.4965578      21.104471      18.127424     -4.4736052      4954.7749      50.372122      47.594789      47.594789      0.05396619     0.039655878    0.068890421    0.020371229    0.01562918     0.020368059    1599.9875      81300.921    
    776000   776            0.99549194    -0.064883132    16.644262      1.4932233      21.109135      18.137485     -4.4648735      3944.136       50.381822      47.635596      47.635596     -0.097215642   -0.055538604   -0.041895148   -0.022552222    0.0032166468   0.0094477567   1608.6598      81311.947    
    780000   780            0.99917419    -0.030243331    16.64394       1.4987467      21.110411      18.142687     -4.4664707      3431.161       50.391522      47.630287      47.630287     -0.010278489   -0.048645856   -0.031805647    0.0032313366   0.0099452102   0.068022142    1617.102       81311.206    
    784000   784            0.99896222    -0.065060296    16.640188      1.4984287      21.105153      18.138617     -4.4649654      3868.2267      50.401222      47.625779      47.625779     -0.10589242    -0.032194003   -0.057094461   -0.026681824   -0.012851596   -0.0035326268   1625.8016      81323.261    
    788000   788            1.0008515     -0.036617695    16.632131      1.5012626      21.103013      18.133394     -4.4708814      4423.7484      50.410922      47.598214      47.598214     -0.044454822   -0.049091115   -0.016307147    0.011822724   -0.024088189    0.010470236    1634.2229      81321.254    
    792000   792            0.99754934    -0.029420993    16.631003      1.4963094      21.108173      18.127313     -4.47717        5067.2051      50.420622      47.579888      47.579888     -0.02636828    -0.031964147   -0.029930551   -0.028673796    0.051105175   -0.0106773      1642.8982      81331.758    
    796000   796            1.0006614     -0.024916684    16.637619      1.5009775      21.112504      18.138597     -4.4748846      3930.6664      50.430322      47.583357      47.583357      0.0043799776  -0.041216101   -0.037913928   -0.0043063607  -0.0055489736   0.021969715    1651.5101      81338.946    
    800000   800            1.0030663     -0.011990847    16.632431      1.5045847      21.104317      18.137016     -4.4718861      4112.4314      50.440022      47.591493      47.591493      0.001535417   -0.020915613   -0.016592345   -0.016690174    0.051383158   -0.024773644    1659.9643      81338.252    
    804000   804            0.9990923      0.037532567    16.628385      1.4986238      21.103117      18.127009     -4.4747324      5158.131       50.449722      47.562739      47.562739      0.016747394    0.036790487    0.059059821   -0.038397445    0.0079172534   0.032141284    1668.3046      81331.926    
    808000   808            1.0002752     -0.025842855    16.642141      1.5003982      21.106778      18.142539     -4.4646365      3586.5321      50.459422      47.594783      47.594783     -0.052182575   -0.074225851    0.048879862    0.015853125    0.028803485    0.032955353    1676.7088      81328.679    
    812000   812            1.0026955      0.020069448    16.640417      1.5040286      21.108548      18.144445     -4.4681317      3411.2227      50.469122      47.562601      47.562601     -0.0083358375   0.057111335    0.011432846    0.023090382    0.0099138921   0.012364381    1685.2818      81333.524    
    816000   816            1.0000588     -0.017954562    16.631649      1.5000735      21.106936      18.131722     -4.4752875      4735.2618      50.478822      47.573301      47.573301     -0.063972113    0.0017314324   0.0083769961   0.025117097   -0.022614857    0.024793848    1693.5894      81325.497    
    820000   820            1.0008736     -0.035047254    16.637137      1.5012958      21.108203      18.138433     -4.4710656      4067.6323      50.488522      47.580545      47.580545     -0.070149578   -0.0086390073  -0.026353176   -0.033124585    0.0065409573  -0.0031603077   1702.1986      81331.878    
    824000   824            0.9951491     -0.001459254    16.651498      1.4927091      21.108591      18.144207     -4.4570938      3496.1291      50.498222      47.608359      47.608359     -0.032056771    0.018357375    0.009321634    0.024291157   -0.015303276   -0.00047502634  1710.7475      81335.245    
    828000   828            0.99774565     0.023964387    16.640085      1.4966039      21.108534      18.136689     -4.4684491      4286.4683      50.507922      47.568091      47.568091      0.046916537    0.053573096   -0.028596472   -0.021274953   -0.011168891   -0.0076731224   1718.9186      81320.626    
    832000   832            0.99663742     0.0029945509   16.634504      1.4949415      21.105258      18.129446     -4.4707534      5048.5252      50.517622      47.549577      47.549577     -0.021606408    0.0020661009   0.02852396     0.0048533924   0.016696204   -0.033447162    1727.2406      81313.175    
    836000   836            0.99793385    -0.020714894    16.639388      1.4968862      21.109541      18.136274     -4.4701534      4368.4631      50.527322      47.559381      47.559381      0.0062917875  -0.025230787   -0.043205681   -0.0026899219   0.0071729096   0.017014194    1735.5393      81304.618    
    840000   840            0.99882216    -0.015653519    16.640935      1.4982186      21.108363      18.139154     -4.4674277      4093.2763      50.537022      47.566113      47.566113     -0.018912946    0.036005326   -0.064052937   -0.024994295   -0.016051077   -0.011922367    1743.9986      81303.556    
    844000   844            0.99651624    -0.02375596     16.633978      1.4947598      21.106945      18.128737     -4.4729679      5180.9713      50.546722      47.534708      47.534708     -0.014759006   -0.003203179   -0.053305696    0.026089447   -0.012293557    0.0050465207   1752.2044      81290.657    
    848000   848            1.0014809      0.031454846    16.63199       1.5022067      21.106945      18.134197     -4.4749548      4641.3874      50.556422      47.510476      47.510476      0.0095458939   0.016813058    0.068005587    0.035959513   -0.044571541   -0.0061158621   1760.6895      81290.701    
    852000   852            1.0056007      0.025944374    16.634857      1.5083864      21.106636      18.143244     -4.4717785      3734.2413      50.566122      47.508665      47.508665      0.0035455792   0.021963501    0.052324041   -0.049944294    0.0041530261  -0.019526595    1769.1846      81291.126    
    856000   856            1.0002807      0.055726733    16.638841      1.5004065      21.105192      18.139247     -4.4663515      4163.9263      50.575822      47.507955      47.507955      0.0095734593   0.063037592    0.094569148    0.02270058    -0.046096243    0.031799319    1777.4391      81280.461    
    860000   860            0.99908341     0.097843145    16.632434      1.4986105      21.104944      18.131044     -4.4725101      5024.4574      50.585522      47.492462      47.492462     -0.0090256136   0.17530919     0.12724586     0.039585327   -0.0090113244   0.0022947343   1785.6233      81266.624    
    864000   864            1.0012416     -0.055617849    16.63961       1.5018478      21.10197       18.141458     -4.4623599      3976.9071      50.595222      47.56248       47.56248      -0.070536916   -0.046485622   -0.04983101    -0.024572715   -0.019389262    0.0040054286   1793.8858      81256.384    
    868000   868            0.99974706     0.013800868    16.643502      1.499606       21.106841      18.143108     -4.4633392      3827.5256      50.604922      47.517184      47.517184      0.044822918   -0.035429425    0.03200911    -0.025221228   -0.0053434613   0.011811712    1802.0588      81242.123    
    872000   872            1.0007173      0.012368141    16.633498      1.5010613      21.106783      18.134559     -4.4732851      4723.6498      50.614622      47.490044      47.490044      0.011882426    0.037315657   -0.012093661   -0.0010776977   0.030686188    0.0036016514   1810.3552      81233.463    
[...]
  39768000   39768          0.99428423    -0.07323705     16.638061      1.4914118      21.10351       18.129473     -4.4654485      127104.17      144.93746      28.09029       28.09029      -0.32569024     0.045531068    0.060448025   -0.014146646   -0.0077393822  -8.7674957e-05  91545.801      534.06321    
  39772000   39772          0.99759818    -0.15045574     16.646321      1.4963827      21.106232      18.142703     -4.459911       125757.92      144.94716      28.104419      28.104419     -0.35801049    -0.053346988   -0.040009751    0.022578325   -0.01012556    -0.015908161    91556.48       524.86366    
  39776000   39776          0.99933508    -0.12625385     16.651248      1.498988       21.108913      18.150236     -4.4576648      124995.17      144.95686      28.109039      28.109039     -0.3489317      0.030325119   -0.060154953   -0.01249223    -0.00028511666 -0.025595093    91567.171      515.66388    
  39780000   39780          1.0009641     -0.18784691     16.644095      1.5014316      21.109253      18.145526     -4.465158       125487.26      144.96656      28.102709      28.102709     -0.44499095    -0.088821447   -0.029728336    0.022983019   -0.022280385    0.015555632    91577.734      506.46308    
  39784000   39784          0.99386087    -0.11103314     16.645109      1.4907768      21.106655      18.135886     -4.4615455      126485.19      144.97626      28.090263      28.090263     -0.3471618     -0.011582729    0.025645098   -0.018134429    0.0034861737   0.0078204817   91588.248      497.26175    
  39788000   39788          0.99928326    -0.15908972     16.651111      1.4989103      21.111683      18.150022     -4.4605715      125045.81      144.98596      28.101859      28.101859     -0.37094852    -0.060235481   -0.046085152   -0.017144416    0.01104719    -0.01308217     91599.018      488.06152    
  39792000   39792          0.99526408    -0.080160421    16.652787      1.4928816      21.110654      18.145669     -4.4578667      125501.59      144.99566      28.094068      28.094068     -0.31628687     0.012671738    0.063133871   -0.059656247    0.023461543    0.036138894    91609.6        478.85999    
  39796000   39796          1.0006554     -0.12237449     16.640415      1.5009684      21.104954      18.141383     -4.464539       125950.09      145.00536      28.08189       28.08189      -0.35172108     0.011980605   -0.027382984    0.012597039   -0.01198393     0.014612839    91620.198      469.65827    
  39800000   39800          0.99832151    -0.14828108     16.649592      1.4974676      21.108453      18.14706      -4.4588611      125377.81      145.01506      28.091967      28.091967     -0.37601162    -0.037770143   -0.03106148     0.017706301    0.022174745    0.014459872    91630.459      460.45457    
  39804000   39804          0.99996553    -0.14741641     16.649769      1.4999337      21.109367      18.149702     -4.459598       125116.49      145.02476      28.102195      28.102195     -0.37470415    -0.051165591   -0.016379487    0.0042662665  -0.036182487   -0.063654659    91641.249      451.25326    
  39808000   39808          0.99696234    -0.098705067    16.641972      1.4954289      21.105824      18.137401     -4.4638519      126386.57      145.03446      28.083719      28.083719     -0.35715194     0.0052213052   0.055815437   -0.045637569    0.022468512    0.015025546    91651.842      442.05069    
  39812000   39812          1.0041457     -0.11153941     16.641823      1.5062038      21.106777      18.148027     -4.4649538      125306.87      145.04416      28.087251      28.087251     -0.34442742     0.0074222462   0.0023869473  -0.0041531429   0.01744429     0.02428115     91662.718      432.84917    
  39816000   39816          0.99965213    -0.080026163    16.650575      1.4994636      21.113162      18.150039     -4.4625866      125110.41      145.05386      28.079185      28.079185     -0.29213519     0.035112345    0.016944356   -0.033439974    0.010641155   -0.00600101     91673.177      423.64538    
  39820000   39820          1.0021611      0.013278833    16.639461      1.5032269      21.107975      18.142688     -4.4685135      125873.39      145.06356      28.065693      28.065693     -0.21713861     0.18052057     0.076454534    0.0045619709   0.02709045     0.036510367    91684.032      414.44314    
  39824000   39824          0.99995654    -0.086828577    16.634757      1.4999202      21.104493      18.134677     -4.4697352      126703.89      145.07326      28.072474      28.072474     -0.33759386     0.043760931    0.033347194   -0.0063659362   0.01566441     0.023428568    91694.233      405.23767    
  39828000   39828          0.99781638    -0.06606299     16.646821      1.49671        21.108969      18.143531     -4.4621481      125806.12      145.08296      28.087312      28.087312     -0.25351675     0.041200191    0.014127584   -0.0032070372   0.020618232    0.010225487    91704.874      396.03391    
  39832000   39832          1.0029364     -0.096958947    16.643601      1.5043899      21.107027      18.147991     -4.4634265      125358.34      145.09266      28.070844      28.070844     -0.32914802     0.0029116029   0.035359575   -0.031867881    0.026044122    0.012858569    91715.536      386.82994    
  39836000   39836          0.99893848    -0.18908282     16.634191      1.4983931      21.104441      18.132584     -4.4702505      126947.09      145.10236      28.070396      28.070396     -0.4302592     -0.030222102   -0.10676716    -0.017063288   -0.0068137132  -0.0042691844   91726.482      377.62685    
  39840000   39840          0.99807929    -0.17728192     16.639373      1.4971043      21.108207      18.136477     -4.468834       126558.02      145.11206      28.079777      28.079777     -0.42330437    -0.062111748   -0.046429653   -0.037883633    0.018537257    0.0024834185   91737.113      368.42214    
  39844000   39844          1.0034056     -0.12896829     16.638896      1.5050936      21.106631      18.143989     -4.467735       125797.26      145.12176      28.075375      28.075375     -0.38165041    -0.025145169    0.019890705    0.024154052    0.0052525272   0.041855508    91747.847      359.21755    
  39848000   39848          1.0047615     -0.1285071      16.641459      1.5071275      21.106571      18.148587     -4.4651121      125335.57      145.13146      28.075613      28.075613     -0.3530059      0.036822169   -0.069337558    0.029058226    0.015798089   -0.017219255    91758.727      350.01321    
  39852000   39852          1.0010511     -0.12129784     16.656435      1.5015619      21.108784      18.157997     -4.4523483      124380.84      145.14116      28.094747      28.094747     -0.30519627    -0.031745468   -0.02695177    -0.028861659   -0.0090330495   0.0025054244   91769.108      340.80668    
  39856000   39856          0.99945127    -0.092024848    16.645685      1.4991623      21.103284      18.144847     -4.4575992      125738.09      145.15086      28.077638      28.077638     -0.34584652     0.034901464    0.034870516   -0.010107205    0.016475427   -0.013506114    91779.613      331.60037    
  39860000   39860          0.99964456    -0.098250335    16.648648      1.4994522      21.106109      18.1481       -4.4574611      125414.29      145.16056      28.080163      28.080163     -0.34656511     0.013178563    0.038635541   -0.021775234    0.016927659   -0.02926964     91790.29       322.3944     
  39864000   39864          1.0004847     -0.10159372     16.651918      1.5007125      21.110809      18.15263      -4.4588915      124959.59      145.17026      28.080448      28.080448     -0.32220587     0.02593953    -0.0085148201  -0.047127604   -0.015103109    0.043443025    91800.896      313.18789    
  39868000   39868          0.99906922    -0.13552144     16.647039      1.4985892      21.108877      18.145628     -4.4618384      125686.72      145.17996      28.075845      28.075845     -0.31275057    -0.067423372   -0.026390376   -0.025973128   -0.0047824064   0.012661989    91811.52       303.98115    
  39872000   39872          1.0009983     -0.090977373    16.644694      1.5014828      21.104598      18.146176     -4.4599049      125640.11      145.18966      28.071567      28.071567     -0.41922786     0.091149965    0.05514578     0.0097409091   0.0050703231  -0.006230436    91822.283      294.77458    
  39876000   39876          1.0028405     -0.096636456    16.642351      1.5042461      21.106789      18.146597     -4.4644373      125606.43      145.19936      28.064727      28.064727     -0.38614219     0.060021765    0.036211061    0.049792913    0.028354073    0.010152156    91833.175      285.5681     
  39880000   39880          1.0011461     -0.16481993     16.639893      1.5017045      21.107985      18.141597     -4.4680923      126128.54      145.20906      28.06539       28.06539      -0.438321      -0.046467256   -0.0096715443   0.036432504   -0.015019198    0.0040861828   91843.902      276.36079    
  39884000   39884          0.99458643    -0.12868155     16.639996      1.4918651      21.106835      18.131861     -4.466839       127135.85      145.21876      28.062697      28.062697     -0.42469593     0.011961206    0.026690072    0.011362636   -0.011461601   -0.026804762    91854.389      267.15247    
  39888000   39888          0.99949382    -0.11588856     16.644704      1.4992261      21.10825       18.14393      -4.4635457      125908.58      145.22846      28.072875      28.072875     -0.28879703    -0.033074856   -0.025793791    0.025331989    0.04580726    -0.00041722245  91865.012      257.94428    
  39892000   39892          1.0059467     -0.053964028    16.641834      1.5089053      21.110782      18.150739     -4.468948       125220.15      145.23816      28.04389       28.04389      -0.27746234     0.085712125    0.02985813    -0.025479218   -0.0053853019  -0.011037068    91875.503      248.73544    
  39896000   39896          0.99742116    -0.077670167    16.641552      1.4961171      21.109017      18.137669     -4.4674653      126569.06      145.24786      28.052736      28.052736     -0.25061648     0.053166491   -0.035560518   -0.0012261      0.0049757385   0.015713404    91886.014      239.52641    
  39900000   39900          1.0029686     -0.091303092    16.643165      1.5044382      21.106378      18.147603     -4.4632131      125560.28      145.25756      28.058412      28.058412     -0.29572906    -0.05843181     0.080251592    0.010699046    0.021358956    0.0090930834   91896.613      230.31733    
  39904000   39904          1.0073074     -0.061510804    16.641955      1.5109464      21.1105        18.152902     -4.4685452      125026.55      145.26726      28.040026      28.040026     -0.28437983     0.041206902    0.058640515   -0.017336478   -0.01016575     0.0086355767   91907.387      221.10839    
  39908000   39908          1.0006347     -0.0030595846   16.642273      1.5009374      21.108216      18.143211     -4.465943       126029.54      145.27696      28.053178      28.053178     -0.20731809     0.10124175     0.096897583    0.0048275593   0.011144335    0.03755199     91918.043      211.89887    
  39912000   39912          0.99974515    -0.12223517     16.640244      1.4996031      21.109917      18.139848     -4.469673       126383.8       145.28666      28.046255      28.046255     -0.37923187    -0.0403507      0.052877075   -0.047041182   -0.017389808    0.034027582    91928.737      202.68914    
  39916000   39916          1.0003114     -0.08647358     16.644517      1.5004524      21.105796      18.14497      -4.4612785      125868.26      145.29636      28.062359      28.062359     -0.30337929     0.033010217    0.010948331    0.0072029866   0.00092239861 -0.014420464    91939.122      193.47846    
  39920000   39920          0.99567233    -0.11749232     16.655617      1.4934939      21.108598      18.149111     -4.4529804      125453.51      145.30606      28.084363      28.084363     -0.35817292     0.045275258   -0.039579286    0.0030393663  -0.012042907    0.023219624    91949.765      184.26807    
  39924000   39924          0.99638902    -0.093607091    16.646125      1.4945689      21.108035      18.140694     -4.4619096      126326         145.31576      28.061932      28.061932     -0.37448507     0.06289598     0.030767816    0.0071662879  -0.014738434   -0.030169234    91960.515      175.05759    
  39928000   39928          0.99730993    -0.036287105    16.642399      1.4959503      21.108588      18.138349     -4.4661897      126575.73      145.32546      28.036663      28.036663     -0.25795203     0.073079837    0.076010878   -0.017585748   -0.0083430363  -0.0012535806   91971.267      165.84681    
  39932000   39932          1.0026404     -0.099451235    16.646083      1.503946       21.112822      18.150029     -4.4667387      125388.06      145.33516      28.033981      28.033981     -0.38493168     0.085339171    0.0012388044   0.0061648087   0.0040523613  -0.0016151228   91981.797      156.63533    
  39936000   39936          1.0006476     -0.10528553     16.645306      1.5009568      21.106964      18.146263     -4.4616584      125783.59      145.34486      28.05648       28.05648      -0.32143848    -0.0016805648   0.0072624477   0.022455764    0.028685942    0.0083805867   91992.502      147.42388    
  39940000   39940          1.0003343     -0.10696353     16.641121      1.5004868      21.106209      18.141608     -4.4650878      126270.28      145.35456      28.051524      28.051524     -0.31978335    -0.036988448    0.035881196    0.0057800828  -0.016178397    0.030649763    92003.019      138.21185    
  39944000   39944          0.99741541    -0.11443289     16.641315      1.4961085      21.109443      18.137424     -4.4681281      126708.93      145.36426      28.049463      28.049463     -0.33115949    -0.0065313568  -0.0056078329   0.009506452   -0.0017580262   0.0099406219   92013.67       128.99974    
  39948000   39948          1.0058888     -0.14969255     16.64032       1.5088184      21.105728      18.149139     -4.4654078      125517.48      145.37396      28.056497      28.056497     -0.36594431    -0.04550855    -0.037624808   -0.010196452   -0.024249216   -0.041236925    92024.294      119.78731    
  39952000   39952          1.0003187     -0.10877598     16.642696      1.5004633      21.107628      18.143159     -4.4649321      126139.9       145.38366      28.049354      28.049354     -0.35436873     0.052766294   -0.024725515   -0.02168297    -0.014852156    0.028270816    92034.913      110.57458    
  39956000   39956          0.99746851    -0.088245522    16.64167       1.4961882      21.108156      18.137858     -4.4664866      126692.86      145.39336      28.04606       28.04606      -0.29841578    -0.007251208    0.040930428    0.0094187068   0.017789386    0.015181569    92045.618      101.36168    
  39960000   39960          0.99902469    -0.15292099     16.647916      1.4985224      21.110897      18.146439     -4.4629803      125823         145.40306      28.063921      28.063921     -0.36874879    -0.048243592   -0.041770597   -0.042324415   -0.011391523   -0.01037033     92056.271      92.14842     
  39964000   39964          0.99492666    -0.092865848    16.652772      1.4923754      21.109233      18.145147     -4.4564614      125964.86      145.41276      28.070017      28.070017     -0.34402227     0.014956979    0.050467744   -0.015769802   -0.012446351   -0.010237638    92066.931      82.934879    
  39968000   39968          1.0016464     -0.078410945    16.65492       1.502455       21.114418      18.157375     -4.4594982      124721.17      145.42246      28.06034       28.06034      -0.31120572     0.026064341    0.049908548   -0.065007069    0.013569338   -0.018715421    92077.694      73.721132    
  39972000   39972          0.9987053     -0.11890626     16.648929      1.4980433      21.105476      18.146972     -4.4565473      125796.87      145.43216      28.064025      28.064025     -0.37112534     0.015767957   -0.0013614025   0.011338099   -0.031925878    0.0050080459   92088.411      64.507043    
  39976000   39976          0.99247061    -0.14879205     16.656228      1.4886914      21.106226      18.14492      -4.4499974      126017.06      145.44186      28.081062      28.081062     -0.39265851    -0.051222207   -0.00249544    -0.013565349   -0.0046882557   0.048312312    92098.942      55.292541    
  39980000   39980          0.99825862    -0.14716479     16.657021      1.4973733      21.109904      18.154394     -4.4528839      125055.72      145.45156      28.07341       28.07341      -0.39618216    -0.039788679   -0.0055235183  -0.062497359    0.0030036062  -0.0065801083   92109.414      46.077746    
  39984000   39984          1.0002594     -0.1755663      16.646478      1.5003744      21.109598      18.146852     -4.46312        125838.09      145.46126      28.054931      28.054931     -0.37336687    -0.062045986   -0.091286039   -0.011329363   -0.04492086    -0.011074169    92119.929      36.862717    
  39988000   39988          0.99749829    -0.17438975     16.650844      1.4962328      21.109873      18.147077     -4.4590283      125824.46      145.47096      28.063787      28.063787     -0.39472594    -0.08649142    -0.041951889    0.0020193712  -0.00075709373 -0.05021278     92130.399      27.647414    
  39992000   39992          0.99817912    -0.1235854      16.650366      1.4972541      21.106697      18.14762      -4.4563312      125778.28      145.48066      28.057242      28.057242     -0.33965296    -0.015395914   -0.01570733    -0.0031018291   0.059782976    0.012166219    92141.022      18.431891    
  39996000   39996          1.0006207     -0.064966453    16.63544       1.5009164      21.108982      18.136356     -4.4735428      126942.12      145.49036      28.021912      28.021912     -0.31737824     0.062006579    0.060472301    0.036990596   -0.032781871   -0.024396287    92151.875      9.2161091    
  40000000   40000          1.0025256     -0.093951666    16.641904      1.5037738      21.106764      18.145678     -4.4648597      125996.01      145.50006      28.036194      28.036194     -0.37065201     0.060745283    0.028051731   -0.01325462    -0.011149823   -0.044616435    92162.575      0            
Loop time of 92162.6 on 18 procs for 40000000 steps with 102500 atoms

Performance: 37498.953 tau/day, 434.016 timesteps/s
93.3% CPU use with 18 MPI tasks x 1 OpenMP threads

MPI task timing breakdown:
Section |  min time  |  avg time  |  max time  |%varavg| %total
---------------------------------------------------------------
Pair    | 10109      | 10696      | 12473      | 644.8 | 11.61
Bond    | 11748      | 12601      | 15739      |1017.2 | 13.67
Neigh   | 260.2      | 297.52     | 317.8      |  97.1 |  0.32
Comm    | 16361      | 20939      | 22215      |1144.2 | 22.72
Output  | 931.4      | 931.48     | 931.51     |   0.1 |  1.01
Modify  | 43708      | 44143      | 44495      | 102.8 | 47.90
Other   |            | 2554       |            |       |  2.77

Nlocal:        5694.44 ave        5747 max        5647 min
Histogram: 2 2 0 1 6 2 1 2 0 2
Nghost:        9992.22 ave       10043 max        9909 min
Histogram: 1 0 0 2 1 2 8 0 1 3
Neighs:              0 ave           0 max           0 min
Histogram: 18 0 0 0 0 0 0 0 0 0

Total # of neighbors = 0
Ave neighs/atom = 0
Ave special neighs/atom = 6.6262829
Neighbor list builds = 1331829
Dangerous builds = 0

# GENERATION RESTART
write_restart ./out.deform.restart
System init for write_restart ...
Generated 0 of 36 mixed pair_coeff terms from geometric mixing rule
write_data    ./out.deform.data pair ij
System init for write_data ...
Generated 0 of 36 mixed pair_coeff terms from geometric mixing rule
Total wall time: 25:36:04
