LAMMPS (15 Sep 2022)
OMP_NUM_THREADS environment is not set. Defaulting to 1 thread. (src/comm.cpp:98)
  using 1 OpenMP thread(s) per MPI task
package gpu 0 binsize 12.0
# LAMMPS Script for deform
# Generated 12/17/2022

# INIT PARAMS & READ CONF
include   "/work_bgfs/h/harshad/simulation_9/neat_polymer/config_2/system.init"
# UNITS
units		lj
dimension	3
atom_style	bond

# INPUT FILE
pair_style	lj/cut 2.5
bond_style	fene
read_data /work_bgfs/h/harshad/simulation_9/neat_polymer/config_2/quiescent/thermal_replicates/4.npt.data
Reading data file ...
  orthogonal box = (-24.261527 -24.261527 -24.261527) to (24.261527 24.261527 24.261527)
  2 by 3 by 3 MPI processor grid
  reading atoms ...
  102500 atoms
  reading velocities ...
  102500 velocities
  scanning bonds ...
  2 = max bonds/atom
  reading bonds ...
  104500 bonds
Finding 1-2 1-3 1-4 neighbors ...
  special bond factors lj:    0        0        0       
  special bond factors coul:  0        0        0       
     4 = max # of 1-2 neighbors
     4 = max # of 1-3 neighbors
     8 = max # of 1-4 neighbors
    12 = max # of special neighbors
  special bonds CPU = 0.004 seconds
  read_data CPU = 1.593 seconds
include   "/work_bgfs/h/harshad/simulation_9/neat_polymer/config_2/system.settings"
# ATOM TYPE
mass  1  1.0 #backbone
mass  2  1.0 #endmer
mass  3  1.0 #crosslinker
mass  4  1.0 #outer shell
mass  5  1.0 #inner shell 2
mass  6  1.0 #inner-most shell
mass  7  1.0 #center bead
mass  8  1.0 #endmer post crosslinking
mass  9  1.0 #crosslinker post crosslinking

# BOND
bond_coeff * 30.0 1.50 1.0 1.0
special_bonds lj 0.0 1.0 1.0
Finding 1-2 1-3 1-4 neighbors ...
  special bond factors lj:    0        1        1       
  special bond factors coul:  0        0        0       
     4 = max # of 1-2 neighbors
     4 = max # of 1-3 neighbors
     8 = max # of 1-4 neighbors
    12 = max # of special neighbors
  special bonds CPU = 0.003 seconds

# PAIR
pair_coeff  1*9 1*9 1.0 1.0 2.5

pair_modify  shift yes
neigh_modify delay 1 check yes

# MAKE GROUPS
group polymer type 1 2 3 8 9
102500 atoms in group polymer
#group ins     type 1
#group strand  type 1 2 8
#group ends    type 2 8
#group xlinks  type 3 9
#group filler  type 4 5 6 7

# INPUTS FROM SBATCH
variable Temp          equal 1.0
variable gamma_total   equal 2.0
variable gamma_rate    equal 0.00005
variable dt            equal 0.001
variable Nfreq         equal 4000
variable Nrepeat_2     equal 100
variable Nevery_1      equal 1
variable Nrepeat_1     equal 1

variable Run           equal ${gamma_total}/${gamma_rate}/${dt}
variable Run           equal 2/${gamma_rate}/${dt}
variable Run           equal 2/5e-05/${dt}
variable Run           equal 2/5e-05/0.001

# RUN OPTIONS
run_style verlet
timestep  ${dt}
timestep  0.001

# RESTART
restart  ${Nfreq} cycle.1.restart cycle.2.restart
restart  4000 cycle.1.restart cycle.2.restart

## SAVE RESTARTS EVERY 10% EXTENSION
#variable RestFreq      equal 0.1/${gamma_rate}/${dt}
#restart  ${RestFreq} deform.*.restart
#
# COMPUTE ke/atom, pe/atom, pxx/atom, position and time-avg
compute     ke_atm          all     ke/atom
compute     p_atm           all     stress/atom NULL
compute     pe_atm          all     pe/atom
compute     ebond_atm       all     pe/atom bond
compute     posit_atm       all     property/atom x y z
fix         avg_ke_atm_1    all     ave/atom ${Nevery_1} ${Nrepeat_1} ${Nfreq} c_ke_atm
fix         avg_ke_atm_1    all     ave/atom 1 ${Nrepeat_1} ${Nfreq} c_ke_atm
fix         avg_ke_atm_1    all     ave/atom 1 1 ${Nfreq} c_ke_atm
fix         avg_ke_atm_1    all     ave/atom 1 1 4000 c_ke_atm
fix         avg_pxx_atm_1   all     ave/atom ${Nevery_1} ${Nrepeat_1} ${Nfreq} c_p_atm[*]
fix         avg_pxx_atm_1   all     ave/atom 1 ${Nrepeat_1} ${Nfreq} c_p_atm[*]
fix         avg_pxx_atm_1   all     ave/atom 1 1 ${Nfreq} c_p_atm[*]
fix         avg_pxx_atm_1   all     ave/atom 1 1 4000 c_p_atm[*]
fix         avg_pe_atm_1    all     ave/atom ${Nevery_1} ${Nrepeat_1} ${Nfreq} c_pe_atm
fix         avg_pe_atm_1    all     ave/atom 1 ${Nrepeat_1} ${Nfreq} c_pe_atm
fix         avg_pe_atm_1    all     ave/atom 1 1 ${Nfreq} c_pe_atm
fix         avg_pe_atm_1    all     ave/atom 1 1 4000 c_pe_atm
#fix         avg_posit_atm_1 all     ave/atom ${Nevery_1} ${Nrepeat_1} ${Nfreq} c_posit_atm[1] c_posit_atm[2] c_posit_atm[3]
dump        dump_1 all custom ${Nfreq} ${out_dir}traj.${Nevery_1}_${Nrepeat_1}_${Nfreq}.xyz mol type x y z f_avg_ke_atm_1 f_avg_pe_atm_1 f_avg_pxx_atm_1[*]
dump        dump_1 all custom 4000 ${out_dir}traj.${Nevery_1}_${Nrepeat_1}_${Nfreq}.xyz mol type x y z f_avg_ke_atm_1 f_avg_pe_atm_1 f_avg_pxx_atm_1[*]
dump        dump_1 all custom 4000 /shares_bgfs/dssimmons_data/harshad/deform/neat_polymer/config_2/4_deform/work_bgfs--h--harshad--simulation_9--neat_polymer--config_2--4_deform--traj.${Nevery_1}_${Nrepeat_1}_${Nfreq}.xyz mol type x y z f_avg_ke_atm_1 f_avg_pe_atm_1 f_avg_pxx_atm_1[*]
dump        dump_1 all custom 4000 /shares_bgfs/dssimmons_data/harshad/deform/neat_polymer/config_2/4_deform/work_bgfs--h--harshad--simulation_9--neat_polymer--config_2--4_deform--traj.1_${Nrepeat_1}_${Nfreq}.xyz mol type x y z f_avg_ke_atm_1 f_avg_pe_atm_1 f_avg_pxx_atm_1[*]
dump        dump_1 all custom 4000 /shares_bgfs/dssimmons_data/harshad/deform/neat_polymer/config_2/4_deform/work_bgfs--h--harshad--simulation_9--neat_polymer--config_2--4_deform--traj.1_1_${Nfreq}.xyz mol type x y z f_avg_ke_atm_1 f_avg_pe_atm_1 f_avg_pxx_atm_1[*]
dump        dump_1 all custom 4000 /shares_bgfs/dssimmons_data/harshad/deform/neat_polymer/config_2/4_deform/work_bgfs--h--harshad--simulation_9--neat_polymer--config_2--4_deform--traj.1_1_4000.xyz mol type x y z f_avg_ke_atm_1 f_avg_pe_atm_1 f_avg_pxx_atm_1[*]
dump_modify dump_1 append yes sort id

# COMPUTE a separate pe and ke for each group, AVG & SAVE
compute   pe_polymer    all reduce  sum c_pe_atm
compute   ke_polymer    all reduce  sum c_ke_atm
compute   ebond_polymer all reduce  sum c_ebond_atm
compute   pxx_polymer   all reduce  sum c_p_atm[1] c_p_atm[2] c_p_atm[3]
compute   pxy_polymer   all reduce  sum c_p_atm[4] c_p_atm[5] c_p_atm[6]
fix 		  avgEnergy     all     ave/time ${Nevery_1} ${Nrepeat_2} ${Nfreq} c_pe_polymer c_ke_polymer c_ebond_polymer c_pxy_polymer[1] c_pxy_polymer[2] c_pxy_polymer[3] file energy.avg.csv
fix 		  avgEnergy     all     ave/time 1 ${Nrepeat_2} ${Nfreq} c_pe_polymer c_ke_polymer c_ebond_polymer c_pxy_polymer[1] c_pxy_polymer[2] c_pxy_polymer[3] file energy.avg.csv
fix 		  avgEnergy     all     ave/time 1 100 ${Nfreq} c_pe_polymer c_ke_polymer c_ebond_polymer c_pxy_polymer[1] c_pxy_polymer[2] c_pxy_polymer[3] file energy.avg.csv
fix 		  avgEnergy     all     ave/time 1 100 4000 c_pe_polymer c_ke_polymer c_ebond_polymer c_pxy_polymer[1] c_pxy_polymer[2] c_pxy_polymer[3] file energy.avg.csv
fix       avgPxx_all    all     ave/time ${Nevery_1} ${Nfreq} ${Nfreq}     c_pxx_polymer[1] c_pxx_polymer[2] c_pxx_polymer[3]                                           file pxx.all.avg.csv
fix       avgPxx_all    all     ave/time 1 ${Nfreq} ${Nfreq}     c_pxx_polymer[1] c_pxx_polymer[2] c_pxx_polymer[3]                                           file pxx.all.avg.csv
fix       avgPxx_all    all     ave/time 1 4000 ${Nfreq}     c_pxx_polymer[1] c_pxx_polymer[2] c_pxx_polymer[3]                                           file pxx.all.avg.csv
fix       avgPxx_all    all     ave/time 1 4000 4000     c_pxx_polymer[1] c_pxx_polymer[2] c_pxx_polymer[3]                                           file pxx.all.avg.csv

# TIME-AVG Ly
variable Ly equal ly
fix       avgLy         all     ave/time ${Nevery_1} ${Nfreq} ${Nfreq}     v_Ly  file Ly.avg.csv
fix       avgLy         all     ave/time 1 ${Nfreq} ${Nfreq}     v_Ly  file Ly.avg.csv
fix       avgLy         all     ave/time 1 4000 ${Nfreq}     v_Ly  file Ly.avg.csv
fix       avgLy         all     ave/time 1 4000 4000     v_Ly  file Ly.avg.csv

# SIMULATION FIXES
fix  npt        all npt temp ${Temp} ${Temp} 2.0 y 0 0 5 z 0 0 5 couple yz
fix  npt        all npt temp 1 ${Temp} 2.0 y 0 0 5 z 0 0 5 couple yz
fix  npt        all npt temp 1 1 2.0 y 0 0 5 z 0 0 5 couple yz
fix  mom        all momentum 10000 linear 1 1 1
fix  deform     all deform 1 x erate ${gamma_rate} remap x units box
fix  deform     all deform 1 x erate 5e-05 remap x units box

# THERMO
variable  thermo_frq equal ${Nfreq}
variable  thermo_frq equal 4000
thermo    ${thermo_frq}
thermo    4000
thermo_style  custom step time temp press pe ke ebond etotal epair ecouple lx ly lz pxx pyy pzz pxy pxz pyz cpu cpuremain

# deform
run ${Run}
run 40000000

CITE-CITE-CITE-CITE-CITE-CITE-CITE-CITE-CITE-CITE-CITE-CITE-CITE

Your simulation uses code contributions which should be cited:

- GPU package (short-range, long-range and three-body potentials): doi:10.1016/j.cpc.2010.12.021, doi:10.1016/j.cpc.2011.10.012, doi:10.1016/j.cpc.2013.08.002, doi:10.1016/j.commatsci.2014.10.068, doi:10.1016/j.cpc.2016.10.020, doi:10.3233/APC200086

@Article{Brown11,
 author = {W. M. Brown and P. Wang and S. J. Plimpton and A. N. Tharrington},
 title = {Implementing Molecular Dynamics on Hybrid High Performance Computers---Short Range Forces},
 journal = {Comput.\ Phys.\ Commun.},
 year =    2011,
 volume =  182,
 pages =   {898--911},
 doi =     {10.1016/j.cpc.2010.12.021}
}

@Article{Brown12,
 author = {W. M. Brown and A. Kohlmeyer and S. J. Plimpton and A. N. Tharrington},
 title = {Implementing Molecular Dynamics on Hybrid High Performance Computers - Particle-Particle Particle-Mesh},
 journal = {Comput.\ Phys.\ Commun.},
 year =    2012,
 volume =  183,
 doi =     {10.1016/j.cpc.2011.10.012},
 pages =   {449--459}
}

@Article{Brown13,
 author = {W. M. Brown and Y. Masako},
 title = {Implementing Molecular Dynamics on Hybrid High Performance Computers---Three-Body Potentials},
 journal = {Comput.\ Phys.\ Commun.},
 year =    2013,
 volume =  184,
 pages =   {2785--2793},
 doi =     {10.1016/j.cpc.2013.08.002},
}

@Article{Trung15,
 author = {T. D. Nguyen and S. J. Plimpton},
 title = {Accelerating Dissipative Particle Dynamics Simulations for Soft Matter Systems},
 journal = {Comput.\ Mater.\ Sci.},
 year =    2015,
 doi =     {10.1016/j.commatsci.2014.10.068},
 volume =  100,
 pages =   {173--180}
}

@Article{Trung17,
 author = {T. D. Nguyen},
 title = {{GPU}-Accelerated {T}ersoff Potentials for Massively Parallel
    Molecular Dynamics Simulations},
 journal = {Comput.\ Phys.\ Commun.},
 year =    2017,
 doi =     {10.1016/j.cpc.2016.10.020},
 volume =  212,
 pages =   {113--122}
}

@inproceedings{Nikolskiy19,
 author = {V. Nikolskiy and V. Stegailov},
 title = {{GPU} Acceleration of Four-Site Water Models in {LAMMPS}},
 booktitle = {Proceedings of the International Conference on Parallel
    Computing (ParCo 2019), Prague, Czech Republic},
 doi =     {10.3233/APC200086},
 year =    2019
}

CITE-CITE-CITE-CITE-CITE-CITE-CITE-CITE-CITE-CITE-CITE-CITE-CITE

Generated 0 of 36 mixed pair_coeff terms from geometric mixing rule
WARNING: Inconsistent image flags (src/domain.cpp:819)
Per MPI rank memory allocation (min/avg/max) = 11.63 | 11.63 | 11.64 Mbytes
   Step          Time           Temp          Press          PotEng         KinEng         E_bond         TotEng         E_pair        Ecouple           Lx             Ly             Lz            Pxx            Pyy            Pzz            Pxy            Pxz            Pyz            CPU          CPULeft    
         0   0              0.9949805     -0.051218769    16.632         1.4924562      21.102547      18.124456     -4.4705471      0              48.523054      48.523054      48.523054     -0.06796333    -0.043548389   -0.042144587   -0.049471194   -0.035544664    0.023834036    0              0            
      4000   4              1.0006213     -0.022379243    16.63202       1.5009174      21.107433      18.132937     -4.4754134     -848.63434      48.532758      48.511393      48.511393     -0.019209112   -0.011990814   -0.035937803   -0.006791808    0.015920176    0.0073293391   7.2988225      72980.935    
      8000   8              1.0008332      0.048046488    16.644303      1.5012351      21.108924      18.145538     -4.4646205     -2119.3793      48.542463      48.52682       48.52682       0.016950734    0.046139244    0.081049485    0.024182474   -0.005881718   -0.0056387477   14.746897      73719.743    
     12000   12             0.99742796    -0.0070339126   16.637479      1.4961273      21.106832      18.133606     -4.4693533     -876.11477      48.552167      48.493287      48.493287      0.0035802621   0.0096419596  -0.034323959   -0.034509612   -0.011706727   -0.010712551    22.061366      73515.83     
     16000   16             1.0020435     -0.036187586    16.631585      1.5030506      21.10914       18.134635     -4.4775552     -961.32082      48.561872      48.481601      48.481601     -0.064923578    0.034994559   -0.078633741   -0.039415803    0.012601427    0.016041607    29.493787      73704.976    
     20000   20             1.0014661     -0.005011908    16.637497      1.5021844      21.106809      18.139681     -4.4693122     -1457.785       48.571577      48.493499      48.493499      0.00067771945 -0.01760142     0.001887976    0.0089902471   0.019908337    0.033732469    36.772137      73507.505    
     24000   24             1.0005872      0.00021049109  16.645273      1.5008661      21.110659      18.146139     -4.465386      -2099.0102      48.581281      48.502273      48.502273      0.0053274501   0.0018481826  -0.0065441594   0.027951863   -0.018383188    0.020704266    44.192785      73610.451    
     28000   28             0.99940246     0.046824521    16.632525      1.4990891      21.107348      18.131614     -4.4748226     -589.66816      48.590986      48.458752      48.458752      0.033284506    0.060898724    0.046290332    0.0079531894   0.0058139839   0.033796582    51.649863      73733.87     
     32000   32             0.99475332    -0.023570534    16.640703      1.4921154      21.108895      18.132818     -4.4681923     -692.5061       48.600691      48.475733      48.475733      0.020633959   -0.022443474   -0.068902086   -0.012184706   -0.0066121555  -0.010502786    59.017313      73712.625    
     36000   36             0.9991909     -0.035337893    16.644876      1.4987717      21.105959      18.143647     -4.4610834     -1781.558       48.610395      48.517876      48.517876     -0.043749161   -0.012301858   -0.049962661    0.016213243   -0.023663993    0.036140187    66.376901      73685.736    
     40000   40             0.99570449     0.016481977    16.638957      1.4935422      21.109242      18.132499     -4.4702855     -618.36354      48.6201        48.468983      48.468983     -0.0047227586   0.06424872    -0.01008003    -0.0037072425  -0.018978679   -0.035114414    73.68966       73615.971    
     44000   44             0.99970685    -0.00081922449  16.632939      1.4995456      21.10717       18.132485     -4.4742304     -596.32053      48.629804      48.456792      48.456792     -0.043110489    0.019669788    0.020983028    0.047353821    0.018323084    0.010078834    80.968936      73527.156    
     48000   48             1.0005243     -0.049390016    16.640137      1.5007718      21.10874       18.140909     -4.4686034     -1438.9922      48.639509      48.462937      48.462937     -0.038157623   -0.064910943   -0.045101481   -0.011075733   -0.025601948   -0.0025121758   88.340745      73528.948    
     52000   52             0.99850924    -0.0090767432   16.633559      1.4977493      21.105782      18.131308     -4.472223      -434.37498      48.649214      48.451652      48.451652     -0.041790433   -0.028003985    0.042564188    0.0027993337  -0.0014225047  -0.011090193    95.704012      73522.768    
     56000   56             0.99613533    -0.033149709    16.637002      1.4941884      21.107331      18.131191     -4.4703285     -401.95991      48.658918      48.464632      48.464632      0.022065508   -0.044414682   -0.077099955    0.037542733    0.014960508    0.010843698    103.06085      73511.832    
     60000   60             1.0016831     -0.022557317    16.637698      1.50251        21.108211      18.140208     -4.4705132     -1305.8852      48.668623      48.430582      48.430582     -0.062623038    0.079611839   -0.084660751   -0.0011865441   0.0062364695  -0.037258897    110.42406      73505.614    
     64000   64             0.99957926     0.032910567    16.627982      1.4993543      21.105134      18.127336     -4.4771521      34.018644      48.678327      48.399566      48.399566      0.056199896   -0.0069835788   0.049515384    0.002898763   -0.037002316    0.0028185234   117.7664       73486.233    
     68000   68             1.0004393      0.021782437    16.627553      1.5006443      21.10562       18.128197     -4.478067      -34.079686      48.688032      48.394531      48.394531     -2.3359522e-05 -0.017227226    0.082597897   -0.062531668   -0.033019439    0.027174441    125.21295      73529.464    
     72000   72             0.9995707      0.026745532    16.63538       1.4993414      21.10789       18.134721     -4.4725099     -681.93805      48.697737      48.414698      48.414698      0.0087621406   0.013227102    0.058247354   -0.0047973417   0.011402355   -0.0045525542   132.66917      73572.427    
     76000   76             1.0028262      0.012323794    16.638877      1.5042247      21.103995      18.143102     -4.4651181     -1520.2575      48.707441      48.428175      48.428175     -0.0034265646  -0.028407308    0.068805256   -0.042336016   -0.033972287   -0.0028266757   140.03536      73562.786    
     80000   80             1.0023949      0.028458927    16.652788      1.5035777      21.11015       18.156365     -4.4573623     -2859.1704      48.717146      48.461447      48.461447      0.086795325   -0.013378307    0.011959764   -0.010907015    0.022204269   -0.0043268311   147.47555      73590.299    
     84000   84             1.0071069      0.055735443    16.641826      1.5106456      21.111111      18.152472     -4.4692848     -2439.7956      48.72685       48.410635      48.410635      0.093071209    0.07774054    -0.0036054202  -0.015116986   -0.032534945   -0.02530676     154.85307      73584.706    
     88000   88             0.99974824     0.026019153    16.637731      1.4996077      21.104802      18.137338     -4.4670711     -868.23298      48.736555      48.406979      48.406979      0.018116608    0.0059798962   0.053960953   -0.03731221     0.024540465   -0.036404729    162.29574      73608.497    
     92000   92             0.99799353     0.020539811    16.631926      1.4969757      21.107108      18.128902     -4.4751817      17.047043      48.74626       48.382385      48.382385      0.0051303081   0.021002425    0.035486699   -0.0077529429  -0.026529546   -0.015927979    169.8455       73676.024    
     96000   96             1.0025604      0.017039683    16.636756      1.5038259      21.109181      18.140582     -4.4724254     -1159.8011      48.755964      48.37405       48.37405      -0.022426346    0.03996213     0.033583265   -0.0058390269  -0.067731624    0.026082196    177.28722      73692.386    
    100000   100            0.99854267    -0.014486571    16.638083      1.4977994      21.105464      18.135883     -4.4673804     -657.73042      48.765669      48.412449      48.412449      0.043836792    0.00036763664 -0.087664141   -0.017636718   -0.0025473264   0.00021266745  184.76868      73722.705    
    104000   104            0.99684036    -0.066654887    16.637903      1.495246       21.102009      18.133149     -4.4641059     -356.95725      48.775374      48.41802       48.41802      -0.11582046    -0.021582512   -0.062561692   -0.0086966682   0.0029218343  -0.054685813    192.12891      73703.605    
    108000   108            0.99831785     0.013528054    16.643124      1.4974622      21.108708      18.140587     -4.4655833     -1098.5017      48.785078      48.39829       48.39829       0.015089395    0.0041695011   0.021325265   -0.0032901362  -0.015687284    0.00016746337  199.55895      73711.165    
    112000   112            0.99771881     0.016305459    16.634788      1.4965636      21.105275      18.131351     -4.4704867     -131.33322      48.794783      48.36403       48.36403       0.0066623667   0.018979109    0.023274903   -0.041806471    0.055670442    0.024495628    206.81992      73657.437    
    116000   116            0.99672404    -0.045925304    16.627536      1.4950715      21.103332      18.122607     -4.4757967      784.90652      48.804487      48.357614      48.357614     -0.06183689    -0.042385643   -0.033553378    0.0037240247   0.021373207   -0.019670996    214.07678      73605.503    
    120000   120            1.0021847     -0.048984215    16.63568       1.5032624      21.105075      18.138942     -4.4693955     -868.46131      48.814192      48.399443      48.399443     -0.067136018   -0.037019399   -0.042797228    0.026696485    0.0019624921   0.0064033219   221.37743      73571.099    
    124000   124            0.99815873     0.028148384    16.641968      1.4972235      21.107117      18.139191     -4.4651487     -873.21767      48.823897      48.381886      48.381886      0.00078889903  0.054728032    0.028928221    0.030511691    0.0061305668   0.01545464     228.68022      73539.135    
    128000   128            0.99452226    -0.0094816701   16.634573      1.4917688      21.101404      18.126342     -4.4668303      464.31254      48.833601      48.360485      48.360485     -0.01671218    -0.048664619    0.03693179    -0.033733653   -0.063040514   -0.034223699    236.12748      73553.711    
    132000   132            0.99625231     0.04809861     16.639162      1.4943639      21.108135      18.133526     -4.4689724     -251.06365      48.843306      48.364614      48.364614      0.03747592     0.11443053    -0.0076106175   0.0071993281  -0.0079515784  -0.029839691    243.63312      73584.585    
    136000   136            0.99992513    -0.0559523      16.635575      1.4998731      21.110093      18.135448     -4.4745185     -427.6084       48.85301       48.356421      48.356421     -0.038533096   -0.027027613   -0.10229619    -0.016703369   -0.008610609    0.033959872    251.00872      73575.087    
    140000   140            0.99879377    -0.052950069    16.637778      1.498176       21.109655      18.135954     -4.4718778     -459.07849      48.862715      48.363644      48.363644     -0.044539251   -0.080353508   -0.033957448    0.0027714542  -0.00061005732 -0.010690571    258.32868      73549.867    
    144000   144            1.003214      -0.0038431448   16.641434      1.5048064      21.107488      18.14624      -4.4660548     -1492.4977      48.87242       48.35483       48.35483       0.01643745     0.0017021551  -0.029669039   -0.07440812    -0.01676276     0.029698137    265.64585      73524.87     
    148000   148            1.0018912      0.048882424    16.632871      1.5028221      21.107198      18.135693     -4.4743279     -390.3658       48.882124      48.317082      48.317082      0.028066304    0.08260147     0.035979497   -0.01949496    -0.025976755    0.034184153    273.03046      73518.987    
    152000   152            1.0002769      0.067349913    16.630861      1.5004007      21.106715      18.131262     -4.4758537      83.668789      48.891829      48.297251      48.297251      0.090692176    0.069133876    0.042223687   -0.076090135    0.030773968   -0.007152777    280.47086      73527.65     
    156000   156            1.0031703      0.0066327303   16.632528      1.5047407      21.111503      18.137268     -4.478975      -511.39254      48.901533      48.293058      48.293058      0.057969924    0.022348945   -0.060420678   -0.035622483    0.061999081   -0.03506043     287.93795      73542.306    
    160000   160            1.0011206      0.042310638    16.630987      1.5016662      21.104322      18.132653     -4.4733345     -17.729449      48.911238      48.315607      48.315607      0.068977903    0.0067659048   0.051188106   -0.011472008   -0.02094087    -0.013159946    295.43899      73564.309    
    164000   164            0.99927467    -0.0034777259   16.631726      1.4988974      21.106346      18.130623     -4.4746205      210.60634      48.920943      48.308293      48.308293      0.0008234315  -0.029188928    0.017932319   -0.027197152   -0.020262445   -0.026524317    302.67412      73520.283    
    168000   168            1.0038673      0.014062052    16.637595      1.5057862      21.107574      18.143381     -4.469979      -1076.1447      48.930647      48.315485      48.315485     -0.0029122633   0.016037558    0.029060863    0.00850763    -0.055485517    0.043437914    309.9788       73494.499    
    172000   172            1.0003811     -0.02511329     16.636649      1.500557       21.105847      18.137206     -4.4691973     -422.69913      48.940352      48.322831      48.322831     -0.028821421   -0.070370057    0.023851607    0.011831417   -0.0056810145  -0.0061814767   317.41074      73499.041    
    176000   176            0.99764978     0.018790196    16.640338      1.4964601      21.107906      18.136798     -4.4675688     -360.2631       48.950057      48.295736      48.295736      0.022869083    0.050884579   -0.017383075    0.00020615275  0.023152013    0.017162315    324.844        73503.338    
    180000   180            0.99693298    -0.021136806    16.63103       1.4953849      21.101724      18.126415     -4.4706933      724.12144      48.959761      48.283958      48.283958     -0.054851173   -0.019375992    0.010816746    0.0072863522   0.027823275    0.00051161805  332.30261      73512.722    
    184000   184            0.99900398    -0.013320851    16.638242      1.4984913      21.107394      18.136733     -4.4691519     -312.91459      48.969466      48.300211      48.300211      0.027913686   -0.036199497   -0.031676741    0.017265016    0.0044909101  -0.021619918    339.78078      73525.607    
    188000   188            0.99912502    -0.0301665      16.641959      1.4986729      21.106147      18.140632     -4.4641888     -691.52298      48.97917       48.319064      48.319064     -0.034852807   -0.085815557    0.030168864    0.0019640522   0.0091555024  -0.041521102    347.14107      73512.661    
    192000   192            0.9965682     -0.0359738      16.643197      1.4948377      21.107058      18.138034     -4.4638612     -405.04716      48.988875      48.31242       48.31242       0.01979995    -0.051989672   -0.075731678   -0.014418903   -0.004900494   -0.0031767313   354.45544      73490.428    
    196000   196            0.99987602    -0.019944729    16.637324      1.4997994      21.105481      18.137123     -4.4681575     -291.26066      48.99858       48.281775      48.281775      0.024676524   -0.06248971    -0.022021002   -0.0097104981  -0.033673712   -0.00069508717  361.81391      73477.76     
    200000   200            0.99862894     0.033247438    16.628938      1.4979288      21.106473      18.126867     -4.4775341      780.56756      49.008284      48.24578       48.24578       0.04608463    -0.011034804    0.06469249     0.022706372   -0.024801398   -0.046212945    369.14514      73459.883    
    204000   204            0.99921389     0.053239345    16.635059      1.4988062      21.109796      18.133865     -4.4747364      83.787853      49.017989      48.228467      48.228467      0.04121472     0.039882037    0.078621277    0.0067209989   0.017734921   -0.013910537    376.68735      73483.578    
    208000   208            1.0024683      0.012018788    16.632845      1.5036877      21.106623      18.136532     -4.4737781     -168.98213      49.027693      48.240516      48.240516      0.031523687    0.022888391   -0.018355714    0.037306115   -0.028265439    0.0051128751   384.09291      73479.929    
    212000   212            1.0011341      0.022429829    16.638624      1.5016865      21.10915       18.14031      -4.4705262     -535.53185      49.037398      48.24479       48.24479       0.010344374    0.029854193    0.027090919    0.038081047   -0.037569117    0.010312266    391.40432      73458.468    
    216000   216            1.0055681      0.043062359    16.634006      1.5083374      21.105893      18.142343     -4.4718875     -723.66328      49.047103      48.224757      48.224757      0.034663357    0.083428069    0.011095651   -0.013577628    0.020078119    0.011323645    398.50255      73398.267    
    220000   220            0.99770971     0.016041695    16.636922      1.49655        21.107673      18.133472     -4.4707507      206.40591      49.056807      48.246813      48.246813      0.06376379     0.019791493   -0.035430197   -0.0073522835   0.049279273    0.0057556078   405.93729      73400.843    
    224000   224            0.99999992    -0.017491906    16.643428      1.4999853      21.108698      18.143413     -4.4652701     -791.91503      49.066512      48.262085      48.262085      0.011506162   -0.032282402   -0.031699476   -0.0039846517   0.028701448    0.020518696    413.51519      73428.484    
    228000   228            1.000607      -0.029777129    16.638905      1.5008958      21.1096        18.139801     -4.4706954     -401.09123      49.076216      48.249528      48.249528     -0.012452228   -0.037078314   -0.039800844    0.0081665149  -0.016186591   -0.012855354    420.99274      73437.383    
    232000   232            1.0015441     -0.023122042    16.63448       1.5023015      21.107835      18.136781     -4.4733557     -71.436908      49.085921      48.225365      48.225365     -0.051189887   -0.0012422651  -0.016933975   -0.045145816    0.0062688398   0.0092104167   428.46719      73445.186    
    236000   236            1.0008539      0.026170021    16.625806      1.5012662      21.109705      18.127072     -4.4838987      943.71299      49.095626      48.183013      48.183013      0.062030967   -0.00063894172  0.017118038   -0.0065506599  -0.00130789     0.0037096433   435.83211      73434.017    
    240000   240            1.0019068      0.020056513    16.627556      1.5028456      21.105608      18.130401     -4.4780526      623.07166      49.10533       48.19165       48.19165      -0.015992215    0.064183095    0.011978659   -0.0076529275   0.034335068    0.014588053    443.22655      73427.865    
    244000   244            1.0002772      0.0068255714   16.638118      1.5004012      21.107464      18.138519     -4.4693459     -188.35067      49.115035      48.218099      48.218099     -0.046156297    0.094195324   -0.027562313   -0.023983708   -0.031626228    0.024342854    450.52823      73406.559    
    248000   248            1.0027552      0.056100227    16.6412        1.5041181      21.111172      18.145318     -4.469972      -864.94206      49.12474       48.18961       48.18961       0.06715857     0.043172327    0.057969786    0.017231228    0.024040294    0.0035236623   457.88369      73394.324    
    252000   252            0.99984653     0.021454174    16.63541       1.4997552      21.108078      18.135165     -4.4726683      195.84888      49.134444      48.193439      48.193439      0.025434675    0.0092232952   0.029704551    0.039681044    0.0025068471  -0.032697808    465.14904      73368.031    
    256000   256            1.0034433      0.0034067      16.634753      1.5051503      21.108855      18.139904     -4.4741015     -269.41053      49.144149      48.186068      48.186068      0.053454637   -0.0054824395  -0.037752098    0.017000008    0.0011419613   0.021155292    472.4849       73353.28     
    260000   260            1.0019321      0.0076484317   16.630079      1.5028836      21.104127      18.132963     -4.4740474      462.11907      49.153853      48.185138      48.185138      0.017976948   -0.046170497    0.051138844   -0.0016108395   0.011195948    0.012472636    479.85192      73343.521    
    264000   264            0.99728303     0.032448746    16.63376       1.4959099      21.10443       18.12967      -4.4706698      820.05048      49.163558      48.188319      48.188319      0.01629097     0.0023137728   0.078741494   -0.00047675314 -0.0021546874   0.034546795    487.25209      73338.822    
    268000   268            0.99867975     0.0038551928   16.641978      1.498005       21.108024      18.139983     -4.4660466     -216.90338      49.173263      48.204131      48.204131      0.039222202   -0.038626128    0.010969504    0.012737994   -0.061308952    0.0096912524   494.60538      73327.094    
    272000   272            0.99612254     0.03867859     16.635884      1.4941692      21.103736      18.130053     -4.4678519      820.647        49.182967      48.190789      48.190789      0.0270435      0.032349322    0.056642947   -0.035708026   -0.012149249   -0.026546647    502.07904      73333.074    
    276000   276            0.99558743    -0.026724419    16.631156      1.4933666      21.105633      18.124522     -4.4744774      1407.9459      49.192672      48.170714      48.170714     -0.039934685   -0.0069100351  -0.033328535    0.051972817    0.018386515    0.016358346    509.31919      73305.057    
    280000   280            0.99987776    -0.03494115     16.637824      1.499802       21.106977      18.137626     -4.4691536      84.775734      49.202376      48.191511      48.191511     -0.030914432   -0.0079181633  -0.065990855    0.009406823    0.011087908    0.030676954    516.5687       73278.961    
    284000   284            1.0004831      0.017823175    16.631115      1.50071        21.107575      18.131825     -4.4764607      699.70186      49.212081      48.163355      48.163355      0.053061008   -0.0081426546   0.0085511704  -0.013002984   -0.061058319   -0.032228418    523.84765      73257.512    
    288000   288            1.0017862      0.030333061    16.624475      1.5026646      21.105838      18.12714      -4.4813627      1199.9129      49.221786      48.133068      48.133068      0.03875294     0.017245251    0.035000991   -0.052925437    0.0066545883   0.015108912    531.20934      73247.866    
    292000   292            1.0044421      0.046383399    16.635848      1.5066484      21.107654      18.142496     -4.4718063     -353.75137      49.23149       48.146872      48.146872      0.065080846    0.037810826    0.036258527   -0.022341619    0.003444523   -0.016887589    538.65757      73250.05     
    296000   296            1.0010332     -0.0094302013   16.636612      1.5015351      21.107885      18.138147     -4.4712722      112.1798       49.241195      48.155472      48.155472     -0.017872113   -0.031203909    0.020785419    0.032413104    0.0046990976   0.039303743    546.02361      73240.951    
    300000   300            0.99840162     0.0024082419   16.62552       1.4975878      21.106182      18.123108     -4.4806626      1673.946       49.250899      48.115019      48.115019     -0.049682142    0.003502444    0.053404423    0.0017313975   0.023720898    0.024587588    553.47627      73243.36     
    304000   304            1.0019895      0.021733319    16.627824      1.5029695      21.108273      18.130794     -4.4804486      906.29866      49.260604      48.126676      48.126676      0.020901566    0.050224174   -0.0059257834   0.037401411   -0.0096388376  -0.018584641    560.94472      73247.571    
    308000   308            1.0016118     -0.040806511    16.637725      1.502403       21.105941      18.140128     -4.4682154     -30.032575      49.270309      48.160024      48.160024     -0.031187892   -0.044041227   -0.047190414   -0.0063862746   0.032829575   -0.061335094    568.46144      73257.7      
    312000   312            0.99816533     0.007329251    16.636603      1.4972334      21.104707      18.133837     -4.4681036      635.43692      49.280013      48.156374      48.156374     -0.048747538    0.0013383681   0.069396923    0.024877111    0.025906723   -0.006842716    575.89123      73256.318    
    316000   316            0.99241382    -0.004599301    16.634778      1.4886062      21.107848      18.123384     -4.4730699      1727.1783      49.289718      48.1315        48.1315       -0.044335948   -0.018541531    0.049079576    0.0047340417   0.0031845059  -0.034417327    583.2443       73245.149    
    320000   320            0.99824774    -0.009276721    16.636957      1.497357       21.106504      18.134314     -4.4695469      627.12462      49.299422      48.148026      48.148026      0.0017165852  -0.0018337411  -0.027713007    0.035551819    0.0091129567   0.0033738386   590.6225       73237.191    
    324000   324            0.99980082    -0.057142677    16.642956      1.4996866      21.106266      18.142642     -4.4633101     -206.55635      49.309127      48.157658      48.157658     -0.078036434   -0.030987228   -0.062404368   -0.021128126    0.0019112906   0.028127325    598.06364      73236.954    
    328000   328            0.99793149     0.015508405    16.635201      1.4968826      21.106804      18.132084     -4.4716033      896.30151      49.318832      48.123424      48.123424      0.024559975    0.003859712    0.018105529    0.0063369754   0.0055732855   0.052162608    605.64507      73253.51     
    332000   332            1.0022295     -0.0069857148   16.627578      1.5033296      21.104925      18.130908     -4.4773466      1036.6888      49.328536      48.089094      48.089094     -0.02990853     0.047337551   -0.038386165   -0.00052933445 -0.049336906    0.01909771     612.90383      73230.931    
    336000   336            1.0038183     -0.022605016    16.638917      1.5057128      21.107694      18.14463      -4.4687772     -349.42907      49.338241      48.112609      48.112609     -0.00026784185 -0.059603966   -0.007943241   -0.051977272    0.013772262   -0.022820361    620.45534      73243.276    
    340000   340            1.0025972      0.060972919    16.636958      1.5038811      21.110145      18.140839     -4.4731869      59.670142      49.347946      48.083785      48.083785      0.020236904    0.12205718     0.04062467     0.0039030975  -0.016142956   -0.00047910353  627.70868      73220.372    
    344000   344            1.0030514      0.0039692098   16.63114       1.5045625      21.10403       18.135703     -4.4728895      606.63176      49.35765       48.096539      48.096539     -0.03414025     0.005752144    0.040295735    0.031497955   -0.003367076    0.014831763    635.01069      73203.442    
    348000   348            0.99902742     0.037021284    16.627342      1.4985265      21.105048      18.125868     -4.4777064      1635.0086      49.367355      48.070969      48.070969      0.054835468    0.047285392    0.0089429926   0.012594366   -0.030949458    0.019459849    642.26723      73181.552    
    352000   352            0.99701577     0.0038095009   16.629807      1.4955091      21.105078      18.125316     -4.4752708      1711.4503      49.377059      48.062871      48.062871      0.02797981    -0.018148775    0.0015974676   0.0045112279  -0.024361055   -0.024068658    649.51671      73159.201    
    356000   356            1.0005093      0.032201309    16.639089      1.5007493      21.105279      18.139838     -4.4661901      243.66242      49.386764      48.101701      48.101701      0.028237122    0.055060045    0.013306759   -0.0012641183  -0.029030577    0.016022917    657.01082      73164.43     
    360000   360            1.0033125      0.05319109     16.637677      1.5049541      21.112794      18.142631     -4.4751173     -22.063454      49.396469      48.06365       48.06365       0.067658741    0.046057083    0.045857447    0.032000653   -0.022022013    0.012249115    664.45892      73164.31     
    364000   364            1.0019053      0.0086477543   16.628682      1.5028433      21.104204      18.131525     -4.4755223      1136.5591      49.406173      48.062732      48.062732      0.054689677   -0.032133846    0.0033874314   0.015693933   -0.0070031608  -0.011359193    671.99008      73173.074    
    368000   368            0.99964822    -8.8557006e-05  16.63971       1.4994577      21.109781      18.139167     -4.470071       373.72246      49.415878      48.08149       48.08149       0.0035230037   0.0014091957  -0.0051978704  -0.0028155074  -0.0022434656   0.011691429    679.26627      73154.025    
    372000   372            1.004066       0.016677173    16.639009      1.5060843      21.110831      18.145094     -4.4718214     -213.2958       49.425582      48.048074      48.048074      0.025801365    0.033218247   -0.0089880922   0.021274408   -0.023561748    0.025336274    686.57257      73138.436    
    376000   376            1.0004747      0.0087491446   16.633711      1.5006974      21.106958      18.134409     -4.4732464      902.24839      49.435287      48.055579      48.055579     -0.012670629    0.0079636139   0.03095445    -0.044331003   -0.016537963    0.0034842152   693.87559      73122.677    
    380000   380            0.99532513    -0.01253291     16.635839      1.4929731      21.107154      18.128813     -4.4713141      1495.8868      49.444992      48.066827      48.066827     -0.0041863976  -0.014515958   -0.018896374    0.015255736   -8.5237791e-06  0.052541584    701.29709      73119.449    
    384000   384            0.99903771    -0.056826203    16.641162      1.4985419      21.105713      18.139704     -4.4645511      400.12755      49.454696      48.089173      48.089173     -0.034680988   -0.031886408   -0.10391121    -0.00026990095  0.018891762   -0.036851786    708.7915       73123.657    
    388000   388            0.99905039    -0.027538732    16.646365      1.498561       21.111956      18.144925     -4.465591      -114.14289      49.464401      48.082648      48.082648     -0.055838471   -0.029334664    0.0025569374  -0.0019278881  -0.0028210167   0.014506697    716.2027       73119.127    
    392000   392            0.99973248    -0.011980387    16.631988      1.4995841      21.105572      18.131572     -4.4735845      1274.5419      49.474105      48.035426      48.035426     -0.04116568    -0.011291657    0.016516176   -0.029359784    0.00071559646 -0.029664989    723.62142      73115.299    
    396000   396            0.99984534     0.014516542    16.632109      1.4997534      21.107496      18.131863     -4.4753864      1264.882       49.48381       48.020569      48.020569      0.024133002   -0.01571345     0.035130075    0.049424501    0.032606466    0.014773924    730.99999      73107.383    
    400000   400            1.0003092      0.034941442    16.647771      1.5004492      21.109234      18.14822      -4.461463      -391.48827      49.493515      48.0458        48.0458        0.05585593     0.0019939784   0.046974418   -0.019993509   -0.011976531    0.030720551    738.44284      73105.842    
    404000   404            1.0015689     -0.047204905    16.634912      1.5023388      21.107771      18.137251     -4.4728588      752.7756       49.503219      48.023344      48.023344     -0.062132243   -0.072265429   -0.0072170426   0.01003317     0.0064063713  -0.0027299357   745.80461      73096.236    
    408000   408            1.0003211      0.0013265157   16.630167      1.5004671      21.108197      18.130634     -4.4780301      1450.969       49.512924      47.997171      47.997171      0.0071263563  -0.02756972     0.024422911   -0.019585158    0.048197599   -0.033174487    753.12943      73083.09     
    412000   412            0.99787106     0.010413136    16.630331      1.496792       21.109263      18.127123     -4.4789319      1831.3244      49.522629      47.99316       47.99316      -0.0020824625   0.018575486    0.014746384   -0.046805302   -0.030695192    0.040599481    760.54311      73078.594    
    416000   416            1.0020749     -0.017443216    16.638458      1.5030977      21.103845      18.141556     -4.4653869      372.14535      49.532333      48.034908      48.034908     -0.046093956    0.021241767   -0.027477458    0.030743068    0.005626332    0.0084412884   767.87712      73066.462    
    420000   420            0.99737759     0.0095078308   16.643369      1.4960518      21.10728       18.139421     -4.4639108      611.1267       49.542038      48.042653      48.042653     -0.0059412606   0.036579592   -0.0021148392  -0.032620513    0.023998567    0.055506121    775.33806      73066.382    
    424000   424            0.9967695     -0.012623318    16.629778      1.4951397      21.109014      18.124918     -4.4792357      2117.7218      49.551742      47.989585      47.989585     -0.018097527   -0.0022261968  -0.017546231   -0.0010469471   0.008565207    0.017966616    782.61561      73049.046    
    428000   428            0.99084315    -0.076652849    16.642565      1.4862502      21.107225      18.128815     -4.4646603      1738.7115      49.561447      48.02925       48.02925      -0.061917879   -0.072278507   -0.095762161   -0.02868216    -0.0036727452  -0.0046907542   790.00049      73041.821    
    432000   432            0.99737423     0.010506446    16.639104      1.4960468      21.105562      18.135151     -4.4664578      1109.2345      49.571152      48.007417      48.007417     -0.0080188545   0.018661751    0.020876442    0.00055925992 -0.010511161    0.0078919943   797.15806      73013.773    
    436000   436            1.0011503      0.0048285683   16.639064      1.5017108      21.106385      18.140774     -4.4673216      553.1246       49.580856      48.003462      48.003462      0.043763299   -0.0047582305  -0.024519363    0.048149208    0.015008586   -0.0092784501   804.72276      73023.053    
    440000   440            1.0030827      0.0096655358   16.644872      1.5046094      21.106768      18.149481     -4.4618966     -319.25138      49.590561      48.013517      48.013517      0.0011379152  -0.029321676    0.057180368    0.012829564   -0.02593148     0.017018184    812.04152      73009.915    
    444000   444            0.99819679    -0.027735691    16.637547      1.4972806      21.103741      18.134828     -4.4661941      1202.9724      49.600265      48.014826      48.014826     -0.044989828   -0.04220515     0.0039879037  -0.025269361    0.025453174    0.029171817    819.31723      72993.046    
    448000   448            0.99782403    -0.066022709    16.635218      1.4967214      21.103893      18.13194      -4.468675       1519.239       49.60997       48.004979      48.004979     -0.0688377     -0.070834942   -0.058395485    0.058784473   -0.038814487    0.0065656061   826.66962      72983.118    
    452000   452            0.99897615    -0.014601418    16.640154      1.4984496      21.108852      18.138604     -4.4686981      856.57914      49.619675      47.983251      47.983251     -0.033970619    0.037018851   -0.046852486   -0.020346626    0.025666796   -0.024811156    834.0512       72975.789    
    456000   456            1.0037523      0.0013637507   16.63674       1.5056138      21.106178      18.142354     -4.4694387      492.35154      49.629379      47.977368      47.977368      0.0011817756  -0.013914698    0.016824174    0.026888237    0.033502862    0.016971247    841.3257       72959.174    
    460000   460            0.99911493    -0.029759258    16.630403      1.4986578      21.108375      18.129061     -4.4779721      1874.6865      49.639084      47.93448       47.93448      -0.01625498    -0.0066889749  -0.06633382     0.02421737     0.024663727    0.017669056    848.67966      72949.552    
    464000   464            1.0011885      0.065908587    16.635281      1.5017681      21.107027      18.13705      -4.4717453      1076.3674      49.648788      47.932002      47.932002      0.071752524    0.038470682    0.087502555    0.019276538    0.035148262    0.016118023    855.97809      72935.237    
    468000   468            1.0012284      0.0020952459   16.641309      1.501828       21.105767      18.143137     -4.4644586      472.26663      49.658493      47.977733      47.977733      0.03134683    -0.00057289248 -0.0244882     -0.016113758   -0.019361633   -0.019813735    863.24644      72918.501    
    472000   472            0.99943522     0.0066454808   16.650784      1.4991382      21.109195      18.149923     -4.4584101     -202.75195      49.668198      47.991026      47.991026      0.062777973    0.0077524801  -0.050594011   -0.0079626054   0.038141352    0.01822677     870.57533      72906.995    
    476000   476            1.0034517      0.051174498    16.633609      1.5051629      21.10598       18.138771     -4.4723714      960.46088      49.677902      47.940097      47.940097      0.075913145    0.015438883    0.062171465    0.037901453    0.030461927   -0.011052749    878.07227      72909.514    
    480000   480            0.99865208    -0.011354381    16.632885      1.4979635      21.106798      18.130848     -4.4739134      1792.629       49.687607      47.931032      47.931032     -0.015761038    0.010085084   -0.028387188    0.035955558    0.024283255    0.045613534    885.33345      72892.454    
    484000   484            0.99473479    -0.013657616    16.624378      1.4920876      21.106255      18.116465     -4.4818772      3286.7846      49.697312      47.905001      47.905001     -0.018336426    0.0317383     -0.054374723    0.026993628   -0.014214726   -0.012473459    892.68368      72882.827    
    488000   488            0.998205      -0.0090531269   16.631109      1.4972929      21.104535      18.128402     -4.4734256      2083.1516      49.707016      47.921072      47.921072     -0.044937573    0.029994364   -0.012216171   -0.00786864    -0.037668148   -0.029611179    900.00624      72870.998    
    492000   492            1.0006039     -0.055429595    16.637908      1.5008912      21.111216      18.138799     -4.4733088      1038.166       49.716721      47.934377      47.934377     -0.065145258   -0.068579291   -0.032564235    0.015227236    0.018041904    0.00083362838  907.487        72871.944    
    496000   496            1.0036913      0.006355546    16.631674      1.5055223      21.105391      18.137196     -4.4737173      1222.3713      49.726425      47.905104      47.905104      0.016498587    0.053937366   -0.051369315    0.042683892    0.021708893    0.030295541    914.64067      72846.704    
    500000   500            0.99857311     0.016210268    16.625299      1.4978451      21.106964      18.123145     -4.4816648      2682.6901      49.73613       47.869878      47.869878     -0.043154315    0.070098939    0.021686181    0.0006028976   0.035939122   -0.0138619      921.9825       72836.618    
    504000   504            0.99956319    -0.0043995209   16.632511      1.4993302      21.109356      18.131841     -4.4768457      1811.354       49.745835      47.884532      47.884532     -0.026554115    0.011510056    0.0018454959   0.027067697   -0.0067383579   0.032613659    929.10855      72809.665    
    508000   508            1.0003086      0.022796778    16.639037      1.5004482      21.10759       18.139485     -4.4685527      1048.044       49.755539      47.911678      47.911678     -0.013512613    0.043854858    0.03804809    -0.0096054181  -0.00171794    -0.0094996518   936.39439      72795.447    
    512000   512            1.0029679     -0.025560814    16.635116      1.5044371      21.105135      18.139553     -4.4700189      1061.2653      49.765244      47.904289      47.904289      0.003655203   -0.012379309   -0.067958336   -0.02083888    -0.03834911     0.019362984    943.68102      72781.399    
    516000   516            0.99733128     0.0038043017   16.637763      1.4959823      21.109542      18.133746     -4.4717785      1676.6782      49.774948      47.9033        47.9033       -0.011643345    0.030420396   -0.0073641458  -0.021711732    0.0023268164   0.034150009    951.18137      72783.808    
    520000   520            1.000988      -0.049838228    16.630566      1.5014673      21.104657      18.132033     -4.474091       1871.9576      49.784653      47.890608      47.890608     -0.059143282   -0.079515703   -0.010855699   -0.0034767494   0.029428836    0.0068986867   958.68492      72786.309    
    524000   524            0.99792242    -0.021959952    16.637033      1.496869       21.110212      18.133902     -4.4731788      1700.457       49.794358      47.899989      47.899989     -0.048891098    0.013721549   -0.030710308    0.013023274    0.012725076    0.05917684     965.96778      72772.031    
    528000   528            0.99600063    -0.019063601    16.643794      1.4939864      21.106684      18.13778      -4.4628902      1323.0496      49.804062      47.92168       47.92168      -0.084420475   -0.015406557    0.04263623     0.027900703    0.01107266    -0.026438748    973.25206      72757.965    
    532000   532            0.99956837    -0.06674466     16.637338      1.4993379      21.108351      18.136675     -4.4710131      1456.6263      49.813767      47.904763      47.904763     -0.068236343   -0.11085601    -0.021141626    0.0065790147  -0.00096156464 -0.0025030211   980.68931      72755.349    
    536000   536            0.99424614     0.028517633    16.636675      1.4913547      21.106231      18.128029     -4.4695565      2363.0365      49.823471      47.890424      47.890424      0.039418035    0.014833214    0.03130165    -0.027906807   -0.043613528   -0.019860186    987.96835      72741.013    
    540000   540            1.002569      -0.099491186    16.636423      1.5038388      21.10819       18.140261     -4.4717677      1129.3337      49.833176      47.890137      47.890137     -0.040863527   -0.12408592    -0.13352411     0.0060853204  -0.0080451494  -0.022275587    995.19951      72723.283    
    544000   544            1.0004884     -0.0035597759   16.640706      1.500718       21.107537      18.141424     -4.466831       1030.7061      49.842881      47.885356      47.885356      0.0069844115  -0.011785188   -0.0058785509  -0.012591665   -0.030990412    0.018728229    1002.4663      72708.289    
    548000   548            1.0021805     -0.026681828    16.637122      1.5032561      21.107909      18.140378     -4.4707875      1158.7816      49.852585      47.87802       47.87802      -0.027672791   -0.014742525   -0.037630167    0.0070972555   0.0050097436  -0.014956866    1009.8537      72702.093    
    552000   552            1.0034345      0.037633548    16.643581      1.5051371      21.109225      18.148718     -4.4656442      323.96152      49.86229       47.861071      47.861071      0.0024151809   0.065091594    0.04539387    -0.021042174    0.038089864    0.029900639    1017.2024      72693.119    
    556000   556            0.99941357     0.028420885    16.636797      1.4991057      21.109358      18.135902     -4.4725615      1657.5536      49.871995      47.849781      47.849781      0.027703921   -0.0025720976   0.060130833   -0.0165535     -0.010525092   -0.054452083    1024.5454      72683.757    
    560000   560            1.0011803      0.012825896    16.630661      1.5017558      21.108206      18.132417     -4.4775447      2035.1327      49.881699      47.824078      47.824078      0.019342718    0.013108607    0.0060263619   0.013018245   -0.020375684    0.02215718     1031.9156      72676.338    
    564000   564            1.0025401      0.026283296    16.641686      1.5037955      21.10884       18.145482     -4.4671536      716.61423      49.891404      47.849295      47.849295     -0.026042725    0.08251263     0.022379983   -0.0099539436   0.011537385   -0.015833923    1039.2267      72664.794    
    568000   568            0.99884999    -0.014220395    16.640183      1.4982604      21.109151      18.138443     -4.4689676      1458.5129      49.901108      47.829016      47.829016     -0.078177056    0.015215692    0.020300178    0.0045603552  -0.028625044    0.0053503906   1046.5829      72656.436    
    572000   572            1.0002896      0.025042314    16.628739      1.5004197      21.104424      18.129158     -4.4756853      2430.1385      49.910813      47.825822      47.825822      0.0040167129   0.033571131    0.037539096    0.02434671    -0.010896445   -0.017484278    1053.9355      72647.847    
    576000   576            1.0013776     -0.016323246    16.637022      1.5020517      21.105837      18.139073     -4.4688152      1434.0791      49.920518      47.84594       47.84594      -0.07214331     0.013728151    0.0094454195   0.018912448   -0.043730874    0.04068694     1061.2142      72634.219    
    580000   580            1.003105       0.019272712    16.635682      1.5046427      21.105899      18.140324     -4.4702176      1325.9876      49.930222      47.834026      47.834026      0.0015300654   0.036673309    0.019614761    0.010486602    0.0014327987   0.033946178    1068.4741      72619.393    
    584000   584            0.99784751    -0.013012706    16.630476      1.4967567      21.109222      18.127233     -4.4787451      2687.6528      49.939927      47.787498      47.787498     -0.011500822   -0.069391489    0.041854192    0.0084651722  -0.004740185   -0.0028614332   1075.757       72606.231    
    588000   588            1.0029185     -0.0086873434   16.632291      1.504363       21.106398      18.136654     -4.4741075      1742.4813      49.949631      47.801681      47.801681     -0.016883346    0.028940076   -0.03811876     0.014274039    0.019206449   -0.014800732    1083.0106      72591.181    
    592000   592            1.0083263      0.054006006    16.635396      1.5124747      21.107885      18.147871     -4.4724889      612.94512      49.959336      47.806792      47.806792      0.042502486    0.086436839    0.033078692   -0.0062186166   0.0027062406  -0.013463897    1090.3762      72583.692    
    596000   596            1.0053378      0.049891365    16.635667      1.507992       21.105695      18.143659     -4.4700283      1064.6305      49.969041      47.789641      47.789641      0.094907113    0.0093411764   0.045425805    0.018606248    0.014519096   -0.004589346    1097.6913      72572.865    
    600000   600            1.0026972      0.025038127    16.628959      1.5040312      21.107825      18.13299      -4.478866       2177.8812      49.978745      47.762366      47.762366     -0.009680233    0.020999078    0.063795537   -0.03636493    -0.026228799    0.012350649    1105.0947      72567.888    
    604000   604            0.99786332     0.012587764    16.62852       1.4967804      21.105908      18.1253       -4.4773884      2986.1892      49.98845       47.781839      47.781839      0.025043308    0.012928209   -0.00020822679  0.0086074111   0.004733435   -0.0076460215   1112.3379      72552.425    
    608000   608            1.0009515     -0.031088703    16.638066      1.5014125      21.106953      18.139478     -4.4688872      1553.1852      49.998154      47.801203      47.801203     -0.0096354463  -0.03447966    -0.049151003   -0.0021026173  -0.016697827    0.013215839    1119.7881      72550.485    
    612000   612            1.0007376      0.019093095    16.633733      1.5010918      21.10709       18.134825     -4.4733576      2050.525       50.007859      47.787896      47.787896      0.0059989145   0.039451178    0.011829191   -0.005858979   -0.0097778877   0.044717918    1127.1301      72541.506    
    616000   616            0.99844719    -0.043968874    16.634959      1.4976562      21.104109      18.132616     -4.4691499      2296.9249      50.017564      47.793555      47.793555     -0.058566824   -0.0063997343  -0.066940064    0.0028388122  -0.031883261   -0.024537161    1134.359       72525.319    
    620000   620            0.99901231    -0.015739463    16.635846      1.4985038      21.104082      18.134349     -4.4682368      2139.0841      50.027268      47.779209      47.779209     -0.050737159    0.022665208   -0.019146438    0.010713654   -0.021595857    0.0060255605   1141.69        72515.73     
    624000   624            1.0003019     -0.00012717795  16.64143       1.5004382      21.110493      18.141868     -4.4690629      1388.684       50.036973      47.763059      47.763059     -0.029732298    0.017412298    0.011938466    0.0032405441  -0.02936414     0.031139805    1149.3192      72524.991    
    628000   628            1.0042001      0.08937009     16.644         1.5062854      21.106358      18.150286     -4.462358       546.2313       50.046678      47.770174      47.770174      0.13525998     0.088944028    0.04390626     0.040959338   -0.01002925    -0.0013031243   1156.5694      72510.269    
    632000   632            1.0006623      0.064917172    16.633698      1.5009789      21.105457      18.134677     -4.4717591      2166.1143      50.056382      47.745914      47.745914      0.050046462    0.11885055     0.025854503   -0.062380414    0.0055961696   0.0029534938   1163.9255      72502.247    
    636000   636            0.99918609     0.0031746356   16.627874      1.4987645      21.106133      18.126638     -4.478259       3010.0264      50.066087      47.729667      47.729667     -0.0035034455   0.01319312    -0.00016576748 -0.0032822944   0.031997841    0.014131708    1171.0967      72482.786    
    640000   640            1.0003669     -0.0023641513   16.636071      1.5005357      21.108447      18.136606     -4.4723765      2008.4365      50.075791      47.737544      47.737544      0.011125193   -0.006150951   -0.012066696    0.018100937   -0.020272475   -0.022300805    1178.4233      72473.036    
    644000   644            1.0022557      0.010493453    16.637267      1.5033689      21.106696      18.140636     -4.4694285      1615.3069      50.085496      47.750689      47.750689      0.0052157754   0.035686783   -0.0094222012  -0.0089136244  -0.017135707   -0.029622565    1185.6473      72457.039    
    648000   648            1.0014913     -0.017195927    16.625017      1.5022223      21.104917      18.127239     -4.4799         3008.5294      50.095201      47.73737       47.73737      -0.038809867    0.026106637   -0.038884551   -0.034151773    0.011572467    0.0032113475   1192.9631      72446.732    
    652000   652            0.99601876     0.037872242    16.634868      1.4940136      21.106718      18.128881     -4.4718505      2860.6904      50.104905      47.752193      47.752193      0.044715645    0.074491792   -0.0055907114   0.023687942    0.045482837   -0.030465686    1200.2562      72435.092    
    656000   656            0.99935432    -0.060565395    16.636669      1.4990169      21.105849      18.135686     -4.4691803      2183.3325      50.11461       47.747765      47.747765     -0.03864621    -0.072342054   -0.07070792    -0.0052834435   0.0074361981  -0.00213703     1207.5166      72421.546    
    660000   660            0.99915972    -0.018735077    16.640411      1.498725       21.104968      18.139135     -4.4645577      1849.6073      50.124314      47.758205      47.758205     -0.025394701    0.0048853384  -0.03569587    -0.010395478   -0.013008036    0.012534938    1214.8768      72414.02     
    664000   664            1.0008976     -0.021925971    16.644997      1.5013318      21.112574      18.146329     -4.4675772      1133.0655      50.134019      47.750798      47.750798      0.016579948   -0.030309792   -0.052048069   -0.0018228313   0.040154152    0.0012037512   1222.275       72408.752    
    668000   668            0.99481031    -0.073645398    16.640572      1.4922009      21.108007      18.132773     -4.4674345      2542.6723      50.143724      47.741573      47.741573     -0.096761147   -0.091501176   -0.032673871   -0.010544109   -0.025150443   -0.021412988    1229.4285      72389.047    
    672000   672            1.0024606      0.044050483    16.633543      1.5036763      21.106941      18.13722      -4.4733982      2107.1906      50.153428      47.71311       47.71311       0.082412903    0.062548634   -0.012810089   -0.030470071    0.051254118   -0.013777709    1236.6584      72373.959    
    676000   676            1.0016233     -0.00047158922  16.634108      1.5024202      21.105303      18.136528     -4.4711951      2198.1571      50.163133      47.706253      47.706253     -0.049733123    0.041484982    0.0068333729  -0.044426002    0.011579992    0.023793694    1244.0717      72369.636    
    680000   680            0.99856354     0.024243976    16.637856      1.4978307      21.10846       18.135687     -4.4706039      2304.6994      50.172837      47.701047      47.701047     -0.010075525    0.045477759    0.037329694   -0.046447308   -0.020903852   -0.0041720293   1251.2998      72354.568    
    684000   684            1.0007873     -0.029732955    16.638713      1.5011662      21.108472      18.139879     -4.4697592      1894.9369      50.182542      47.713216      47.713216      0.0013678911  -0.03437152    -0.056195236   -8.7080539e-05 -0.0021103682   0.015223281    1258.6422      72346.165    
    688000   688            1.0038002      0.060549113    16.625927      1.5056855      21.103685      18.131612     -4.4777585      2761.7842      50.192247      47.657062      47.657062      0.097556074    0.0097459148   0.07434535    -0.028178864   -0.020151275   -0.062707595    1265.8706      72331.255    
    692000   692            1.0000848     -0.005592373    16.629515      1.5001125      21.10618       18.129628     -4.4766644      2985.4741      50.201951      47.670475      47.670475     -0.03274781     0.039903495   -0.023932804    0.022132552   -0.016267221   -0.0021227106   1273.4365      72335.61     
    696000   696            1.0006277      0.092848568    16.635985      1.5009269      21.107859      18.136912     -4.471874       2258.633       50.211656      47.679261      47.679261      0.063024407    0.11601972     0.099501576   -0.031168819   -0.017912772   -0.0023757567   1280.6695      72321.024    
    700000   700            0.99745506    -0.055055929    16.636159      1.496168       21.108069      18.132327     -4.4719099      2748.5933      50.221361      47.689078      47.689078     -0.067570598   -0.034715636   -0.062881554   -0.040397832    0.019914159    0.023423474    1288.1633      72321.17     
    704000   704            0.99603642    -0.049388238    16.630581      1.4940401      21.105363      18.124622     -4.4747814      3558.5022      50.231065      47.67174       47.67174      -0.11394919    -0.015288822   -0.018926703   -0.0054463732   0.015147801    0.013607015    1295.471       72310.837    
    708000   708            1.0012402      0.010021458    16.6384        1.5018456      21.105068      18.140246     -4.4666675      1977.2254      50.24077       47.685001      47.685001     -0.030705296    0.063329253   -0.0025595824   0.0016171827   0.0090850782  -0.020055428    1302.7942      72301.4      
    712000   712            0.99993026    -0.0019586431   16.63581       1.4998808      21.107194      18.135691     -4.4713832      2464.2295      50.250474      47.665323      47.665323      0.072733044   -0.090196889    0.011587915    0.014446586    0.063606685   -0.0089210413   1310.0345      72287.409    
    716000   716            0.99819105    -0.019595591    16.633591      1.497272       21.108443      18.130863     -4.4748518      2979.1999      50.260179      47.648255      47.648255      0.010181286   -0.039078295   -0.029889763   -0.023427485   -0.031253686   -0.022706182    1317.5476      72288.466    
    720000   720            1.0013556      0.06129103     16.633331      1.5020188      21.104183      18.13535      -4.4708519      2539.2074      50.269884      47.636653      47.636653      0.069838588    0.008660443    0.10537406    -0.0020575768   0.0039191339   0.030447665    1324.7722      72273.685    
    724000   724            1.0013039      0.035087819    16.633974      1.5019412      21.103723      18.135915     -4.4697493      2501.3075      50.279588      47.656447      47.656447     -0.028429553    0.09791665     0.035776358   -0.028431395    0.019126456   -0.019199694    1331.9745      72257.779    
    728000   728            0.99760663    -0.040965546    16.636247      1.4963954      21.105404      18.132642     -4.4691577      2856.738       50.289293      47.657437      47.657437     -0.016657831   -0.015881922   -0.090356884   -0.016503562    0.0062083411  -0.014489399    1339.2988      72248.547    
    732000   732            0.99513207    -0.035071757    16.638338      1.4926835      21.107599      18.131021     -4.469261       3042.6817      50.298997      47.664965      47.664965     -0.025547391   -0.02553208    -0.054135801   -0.010769671   -0.0010441196   0.016001363    1346.7238      72244.742    
    736000   736            1.0024511      0.010283286    16.63785       1.503662       21.108331      18.141512     -4.4704817      1987.6142      50.308702      47.651803      47.651803      0.026071181    0.032353472   -0.027574794   -0.021884333   -0.04050656     0.029617534    1353.9415      72229.833    
    740000   740            1.0015704     -0.019483461    16.637489      1.5023409      21.108082      18.13983      -4.4705927      2179.6267      50.318407      47.637232      47.637232     -0.04808517     0.0014695554  -0.011834769   -0.018931217   -0.00532534     0.023095403    1361.1431      72214.16     
    744000   744            0.99899676    -0.017178838    16.631745      1.4984805      21.105383      18.130225     -4.4736379      3184.6031      50.328111      47.63745       47.63745       0.0011883608  -0.033498437   -0.019226437   -0.0082585643  -0.014151404   -0.024201206    1368.6267      72213.455    
    748000   748            1.0005838      0.0016543352   16.639873      1.5008611      21.101583      18.140734     -4.4617104      2127.5761      50.337816      47.66885       47.66885      -0.039829699   -0.00067659834  0.045469303   -0.029097999    0.0059043212  -0.010527902    1376.0524      72209.636    
    752000   752            1.0029027     -0.0013455386   16.646238      1.5043393      21.107495      18.150577     -4.4612575      1138.919       50.34752       47.659434      47.659434     -0.036999092   -0.018347514    0.05130999    -0.0094453204   0.028883976   -0.024436217    1383.2534      72194.055    
    756000   756            0.99908278    -0.055177097    16.638312      1.4986096      21.105843      18.136922     -4.4675314      2558.2467      50.357225      47.637003      47.637003     -0.0054290201  -0.084122867   -0.075979404   -0.01936221     0.017188815   -0.033951843    1390.5129      72181.598    
    760000   760            0.99715925     0.050218825    16.634867      1.4957243      21.107921      18.130591     -4.4730541      3227.3788      50.36693       47.611629      47.611629      0.07815763     0.0071419791   0.065356865   -0.0097020232   0.0043393635   0.026961316    1397.8102      72171.148    
    764000   764            1.0023578      0.032814307    16.63839       1.5035221      21.104737      18.141912     -4.4663477      2086.8825      50.376634      47.614719      47.614719      0.041963655    0.051007593    0.0054716722  -0.0344633      0.028955508   -0.010633866    1405.1196      72161.353    
    768000   768            1.0031275      0.0064144964   16.639766      1.5046765      21.105515      18.144442     -4.4657498      1847.7077      50.386339      47.629197      47.629197      0.011032144    0.012281771   -0.0040704256   0.0032627858   0.015266112    0.030774984    1412.1298      72136.299    
    772000   772            0.99965807    -0.010396089    16.629393      1.4994725      21.103573      18.128865     -4.4741807      3463.9474      50.396044      47.589542      47.589542      0.038283121   -0.088408822    0.018937434    0.015211939   -0.017721469    0.0083308305   1419.3946      72124.365    
    776000   776            0.99722819    -0.012852642    16.639062      1.4958277      21.10979       18.134889     -4.4707281      2866.6166      50.405748      47.591903      47.591903     -0.03238967     0.007400301   -0.013568557   -0.058423773    0.0032403521  -0.053500049    1426.6633      72112.68     
    780000   780            0.99959582    -0.011803828    16.643307      1.4993791      21.109899      18.142686     -4.4665919      2087.9886      50.415453      47.609815      47.609815      0.023074359   -0.06530851     0.0068226649   0.045327431   -0.00073719852 -0.069091434    1433.9755      72103.231    
    784000   784            1.0001754      0.0092713976   16.627022      1.5002485      21.103744      18.12727      -4.476722       3688.6043      50.425157      47.568455      47.568455     -0.01764508     0.017235225    0.028224048   -0.039823219    0.050802649    0.0045105966   1441.3213      72095.48     
    788000   788            1.0017994      0.065846819    16.628106      1.5026845      21.104909      18.130791     -4.4768026      3347.698       50.434862      47.552772      47.552772      0.053136052    0.084532468    0.059871938   -0.035449549   -0.047299828    0.048427702    1448.6461      72086.687    
    792000   792            1.0006763      0.0028940872   16.640397      1.5009998      21.108049      18.141396     -4.467652       2280.8595      50.444567      47.584861      47.584861      0.0060569173  -0.0046625479   0.0072878923   0.02610083     0.0064387358  -0.052585319    1455.9402      72076.395    
    796000   796            0.99990818    -0.010810233    16.637676      1.4998476      21.109915      18.137524     -4.472239       2697.6349      50.454271      47.588403      47.588403     -0.019878657   -0.020706983    0.0081549421   0.037336237   -0.016445538    0.022887064    1463.3706      72072.839    
    800000   800            0.99424489    -0.025518156    16.633601      1.4913528      21.105962      18.124954     -4.4723605      4006.1803      50.463976      47.555722      47.555722     -0.04352698    -0.0038162089  -0.029211278   -0.011869794    0.035413059    0.017302094    1470.7749      72067.971    
    804000   804            1.0010678     -0.037196638    16.632025      1.5015871      21.104499      18.133612     -4.4724739      3138.6005      50.47368       47.567915      47.567915     -0.06573699    -0.049894343    0.0040414185  -0.023225422    0.021265689    0.0070988933   1478.1956      72063.874    
    808000   808            1.0008886      0.048496198    16.640523      1.5013183      21.105188      18.141841     -4.4646654      2315.3491      50.483385      47.584853      47.584853      0.03017866     0.042248625    0.07306131    -0.017926359    0.01683114     0.013436552    1485.5689      72057.446    
    812000   812            1.0025495      0.023390205    16.635784      1.5038096      21.108204      18.139593     -4.4724202      2565.4688      50.49309       47.555981      47.555981     -0.049409001    0.045477579    0.074102038    0.034224463    0.066896462    0.0039324919   1492.9905      72053.341    
    816000   816            1.0009944      0.034185265    16.629043      1.5014769      21.103194      18.13052      -4.4741509      3515.0985      50.502794      47.547571      47.547571     -0.029432739    0.094126431    0.037862103   -0.041273792   -0.0055169986   0.036833684    1500.4016      72048.694    
    820000   820            0.99938028     0.051765498    16.640579      1.4990558      21.110759      18.139635     -4.4701794      2601.303       50.512499      47.550531      47.550531      0.043971778    0.006798045    0.10452667     0.017742737   -0.00050488742  0.029789742    1507.6996      72038.622    
    824000   824            1.0055313     -0.035794715    16.635697      1.5082822      21.105356      18.143979     -4.4696592      2176.2392      50.522203      47.552088      47.552088     -0.084459885    0.0088561939  -0.031780454   -0.0056673621   0.053961449    0.0027022395   1515.0347      72030.339    
    828000   828            0.99837068     0.0083620819   16.637003      1.4975414      21.105957      18.134545     -4.4689542      3162.8235      50.531908      47.55276       47.55276      -0.026986294    0.0045738839   0.047498655    0.029820311   -0.060339142    0.00036332905  1522.3167      72019.554    
    832000   832            0.9939205     -0.02967185     16.64206       1.4908662      21.10761       18.132927     -4.4655494      3348.5719      50.541613      47.564795      47.564795     -0.019360859   -0.017327499   -0.052327192    0.038093347    0.060161805    0.017226104    1529.66        72011.688    
    836000   836            1.0001108     -0.058574076    16.640411      1.5001516      21.108638      18.140562     -4.468227       2586.0109      50.551317      47.546075      47.546075     -0.11101153    -0.050363664   -0.014347037    0.0058954204   0.024475862    0.016077329    1536.8545      71996.855    
    840000   840            1.0010319      0.025145702    16.636626      1.5015332      21.112705      18.138159     -4.4760788      2852.6123      50.561022      47.516362      47.516362      0.034921321    0.026370996    0.014144787   -0.029977765    0.024994813   -0.0050066168   1544.1304      71985.887    
    844000   844            0.99741192     0.027375963    16.634584      1.4961033      21.105585      18.130687     -4.4710009      3638.3038      50.570727      47.517164      47.517164      0.004984468    0.024710326    0.052433094   -0.028597685   -0.0018532336   0.011131637    1551.4273      71975.932    
    848000   848            1.0030845     -0.040316896    16.637789      1.5046121      21.105705      18.142401     -4.4679166      2457.6557      50.580431      47.52564       47.52564      -0.012260559   -0.065110814   -0.043579315   -0.046522439   -0.026798208   -0.038835195    1558.7433      71966.884    
    852000   852            1.0016863      0.01650467     16.636523      1.5025148      21.107124      18.139038     -4.4706011      2822.2606      50.590136      47.5064        47.5064        0.035616392   -0.010219467    0.024117086    0.036216082   -0.012030936   -0.031626447    1565.8869      71949.932    
    856000   856            0.99856227    -0.0060313463   16.636022      1.4978288      21.10332       18.133851     -4.4672977      3374.1749      50.59984       47.517189      47.517189     -0.053029533    0.0047394257   0.030196068   -0.039179545   -0.034962524   -0.038808593    1573.2488      71943.052    
    860000   860            1.0037073     -0.01409433     16.635757      1.5055463      21.107928      18.141304     -4.4721708      2630.539       50.609545      47.509945      47.509945     -0.0062554884   0.028626742   -0.064654243    0.016652483    0.003265683    0.032095641    1580.4136      71927.196    
    864000   864            1.0005328      0.043122839    16.639932      1.5007846      21.108812      18.140717     -4.4688799      2710.4799      50.61925       47.488604      47.488604      0.064002976    0.011234525    0.054131016   -0.004982471    0.016958729   -0.037330998    1587.6757      71915.83     
    868000   868            0.9996916     -0.020966715    16.632353      1.4995228      21.104424      18.131876     -4.4720705      3636.7552      50.628954      47.484106      47.484106      0.01013345    -0.029800861   -0.043232734   -0.066797062   -0.034673599    0.016868911    1594.9972      71907.177    
    872000   872            1.0043975      0.026104629    16.63388       1.5065815      21.105565      18.140461     -4.4716854      2776.611       50.638659      47.473546      47.473546     -0.017298172    0.010156189    0.085455868   -0.007809536   -0.0057944997  -0.02137137     1602.292       71897.342    
[...]
  39768000   39768          0.99800209    -0.10599001     16.644828      1.4969885      21.106847      18.141817     -4.4620191      125055.67      145.00629      28.088852      28.088852     -0.28212454    -0.040259511    0.0044140105  -0.028456593    0.018721026    0.0053104152   86596.911      505.1922     
  39772000   39772          1.0012077     -0.11260861     16.642665      1.501797       21.107327      18.144462     -4.4646626      124794.2       145.016        28.082577      28.082577     -0.32033814     0.015474785   -0.032962469   -0.0053900679  -0.002674912    0.033770492    86608.499      496.49849    
  39776000   39776          1.0032818     -0.078706789    16.649205      1.5049081      21.111171      18.154113     -4.4619661      123814.79      145.0257       28.094961      28.094961     -0.36738059     0.040945229    0.09031499     0.0074351084  -0.014614457    0.044121061    86619.911      487.8032     
  39780000   39780          0.99687605    -0.13389121     16.652203      1.4952995      21.106462      18.147503     -4.454259       124502.06      145.03541      28.105326      28.105326     -0.37504119     0.025557519   -0.05218996     0.030592775   -0.030164167   -0.013275005    86630.993      479.10554    
  39784000   39784          0.99858953    -0.14822885     16.644794      1.4978697      21.11087       18.142664     -4.466076       125007.73      145.04511      28.086653      28.086653     -0.38287919     0.0014000155  -0.063207373   -0.0025581901  -0.004666991   -0.046226459    86642.094      470.40751    
  39788000   39788          1.0047293     -0.095765824    16.643379      1.5070792      21.106043      18.150458     -4.4626635      124218.23      145.05482      28.079747      28.079747     -0.36822415     0.076988282    0.0039384009   0.0065452153   0.019013914    0.0088484485   86653.103      461.7085     
  39792000   39792          1.0069925     -0.10419032     16.65019       1.510474       21.111902      18.160664     -4.4617121      123182.13      145.06452      28.084902      28.084902     -0.32408406     0.061749401   -0.050236301    0.0039524865   0.017674971   -0.017020947    86664.489      453.011      
  39796000   39796          1.0012531     -0.14192176     16.644787      1.501865       21.109068      18.146652     -4.4642807      124627.96      145.07423      28.079625      28.079625     -0.36273824    -0.10685207     0.043825036    0.011623318   -0.0099096235   0.012513606    86675.697      444.31204    
  39800000   39800          1.0010483     -0.14244052     16.643417      1.5015578      21.104826      18.144975     -4.4614088      124809.26      145.08393      28.078031      28.078031     -0.39422383    -0.044685591    0.01158788     0.075521936   -0.021862732    0.030161462    86686.619      435.61115    
  39804000   39804          1.0013476     -0.13130084     16.654924      1.5020068      21.111958      18.156931     -4.4570339      123593.8       145.09363      28.095996      28.095996     -0.46610971     0.028350981    0.043856216   -0.0010157163  -0.066425894   -0.029224916    86697.557      426.90989    
  39808000   39808          0.99744195    -0.14510993     16.649896      1.4961483      21.106289      18.146045     -4.456393       124719.26      145.10334      28.091571      28.091571     -0.39385246    -0.015123288   -0.026354037    0.034493577    0.028806865    0.022439407    86709.257      418.21185    
  39812000   39812          1.0005917     -0.10258332     16.643492      1.5008729      21.109008      18.144365     -4.4655157      124900.82      145.11304      28.068667      28.068667     -0.32240064     0.021816799   -0.007166121   -0.031713143   -0.041080872   -0.0025070827   86720.482      409.51097    
  39816000   39816          1.0030035     -0.085311055    16.64397       1.5044905      21.107811      18.148461     -4.4638407      124490.92      145.12275      28.065726      28.065726     -0.3388879      0.038132885    0.044821847   -0.026715003   -0.025641035   -0.010399521    86731.985      400.81086    
  39820000   39820          1.0032929     -0.10754256     16.653133      1.5049247      21.113559      18.158057     -4.4604262      123517.44      145.13245      28.083068      28.083068     -0.35444007     0.023420801    0.0083915747  -0.027646053   -0.032003568   -0.011254327    86743.234      392.10905    
  39824000   39824          0.99798164    -0.09876136     16.648046      1.4969578      21.108004      18.145004     -4.4599584      124864.88      145.14216      28.071535      28.071535     -0.32262761     0.00058035671  0.025763172   -0.0036597242   0.052351828   -0.061730026    86754.611      383.40728    
  39828000   39828          0.99869675    -0.20979682     16.646325      1.4980305      21.107325      18.144356     -4.4610002      124940.92      145.15186      28.095587      28.095587     -0.5031894     -0.057824419   -0.068376633   -0.022552426    0.011097543   -0.016085889    86765.756      374.70398    
  39832000   39832          0.99835349    -0.14040917     16.652015      1.4975156      21.108938      18.14953      -4.4569236      124420.32      145.16157      28.099821      28.099821     -0.40166849    -0.041686282    0.022127248   -0.025738284   -0.021557446   -0.0079960345   86776.974      366.00049    
  39836000   39836          0.99817344    -0.13427366     16.649141      1.4972456      21.109339      18.146386     -4.4601982      124752.4       145.17127      28.084857      28.084857     -0.37678982    -0.0024159727  -0.023615182    0.015117278    0.016007604    0.000460569    86788.44       357.29752    
  39840000   39840          0.99666247    -0.076349595    16.642275      1.4949791      21.110918      18.137254     -4.4686436      125698.19      145.18098      28.070656      28.070656     -0.25671087     0.017270794    0.010391296    0.036286835   -0.041433717    0.020626606    86799.71       348.59321    
  39844000   39844          1.0007381     -0.16242834     16.644202      1.5010925      21.109647      18.145294     -4.4654454      124883.67      145.19068      28.076693      28.076693     -0.3696662     -0.083982411   -0.0336364      0.028889891   -0.054848687   -0.0017059538   86810.538      339.88666    
  39848000   39848          0.99964616    -0.10140306     16.651396      1.4994546      21.107546      18.15085      -4.4561507      124323.8       145.20039      28.087337      28.087337     -0.3016639      0.023604099   -0.026149384   -0.012807615    0.011628715   -0.0061750869   86821.546      331.18036    
  39852000   39852          0.99413736    -0.19015883     16.648687      1.4911915      21.108424      18.139878     -4.4597373      125457.88      145.21009      28.087927      28.087927     -0.48718499    -0.041364151   -0.041927363    0.0031835192   0.0054270974  -0.026839928    86832.702      322.47415    
  39856000   39856          0.99896827    -0.1156991      16.645224      1.4984378      21.107973      18.143662     -4.4627491      125079.47      145.21979      28.082629      28.082629     -0.32600432    -0.025253458    0.0041604654   0.001038553   -0.045585006   -0.066813773    86843.618      313.76659    
  39860000   39860          0.99942531    -0.080008624    16.65545       1.4991233      21.107022      18.154573     -4.4515727      123971.15      145.2295       28.085516      28.085516     -0.34144791     0.054991413    0.046430627    0.049887617    0.019904462   -0.0047686609   86854.972      305.06011    
  39864000   39864          0.99812757    -0.072976495    16.647388      1.4971768      21.109689      18.144565     -4.4623011      125006.35      145.2392       28.056682      28.056682     -0.25367679     0.0094545287   0.025292774   -0.012680146    0.0075700285  -0.037474308    86866.881      296.355      
  39868000   39868          0.99827844    -0.11539881     16.642829      1.4974031      21.107112      18.140232     -4.4642825      125459.82      145.24891      28.063917      28.063917     -0.34488667     0.019959971   -0.021269714    0.022222614   -0.026283143   -0.023888751    86878.114      287.64701    
  39872000   39872          0.99997715    -0.095061967    16.649316      1.4999511      21.107664      18.149268     -4.4583477      124543.51      145.25861      28.075315      28.075315     -0.29911383     0.017406967   -0.0034790428   0.029173856   -0.010336135   -0.0085775073   86889.087      278.93768    
  39876000   39876          1.0023499     -0.13766819     16.651418      1.5035101      21.11024       18.154928     -4.4588223      123972.86      145.26832      28.071186      28.071186     -0.4238743     -0.00036431073  0.011234027    0.010859619    0.012545194   -0.038849608    86899.895      270.22738    
  39880000   39880          0.99587177    -0.1184785      16.646268      1.4937931      21.112405      18.140061     -4.4661371      125506.42      145.27802      28.063364      28.063364     -0.38597712     0.047470444   -0.016928835    0.0035524381  -0.014925295   -0.026654931    86911.181      261.5181     
  39884000   39884          0.99881732    -0.14427979     16.647338      1.4982114      21.106675      18.145549     -4.4593377      124953.56      145.28773      28.07717       28.07717      -0.3502441     -0.039336327   -0.043258939    0.0064358748  -0.01767462    -0.034768078    86922.099      252.80723    
  39888000   39888          1.0034982     -0.14046073     16.644391      1.5052326      21.108101      18.149624     -4.4637102      124545.63      145.29743      28.070271      28.070271     -0.41202192     0.048624357   -0.057984644   -0.034228529   -0.01788452     0.011021697    86932.936      244.09569    
  39892000   39892          0.99908949    -0.074824622    16.648813      1.4986196      21.107995      18.147433     -4.4591814      124780.05      145.30714      28.059442      28.059442     -0.29506033     0.029665355    0.040921111   -0.0041472507   0.014794206    0.032876317    86944.083      235.38456    
  39896000   39896          0.9968882     -0.15050338     16.643743      1.4953177      21.109547      18.139061     -4.465804       125647.76      145.31684      28.050971      28.050971     -0.39659063    -0.034225927   -0.020693573    0.025440812   -0.00065327303  0.012848512    86955.235      226.67296    
  39900000   39900          0.99576828    -0.13243963     16.64272       1.4936378      21.108237      18.136358     -4.465517       125934.15      145.32655      28.054739      28.054739     -0.35921903    -0.036291119   -0.0018087388  -0.008224847    0.019537763   -0.017442225    86966.19       217.96038    
  39904000   39904          1.0005501     -0.091621057    16.64961       1.5008104      21.108326      18.150421     -4.4587154      124502.61      145.33625      28.068211      28.068211     -0.35834118     0.025119304    0.058358705   -0.04073246     0.031007362   -0.031706304    86977.301      209.24772    
  39908000   39908          0.99977021    -0.12537102     16.647016      1.4996407      21.105863      18.146656     -4.458847       124898.05      145.34595      28.077612      28.077612     -0.34639035    -0.0060670768  -0.023655638    0.029989557    0.023230862    0.0042138136   86988.106      200.53387    
  39912000   39912          0.99742945    -0.1475052      16.643827      1.4961296      21.106948      18.139957     -4.4631211      125594.16      145.35566      28.066692      28.066692     -0.38912913    -0.035245223   -0.018141234   -0.023566249    0.019198401   -0.028592823    86998.937      191.81966    
  39916000   39916          1.0001986     -0.12932066     16.641648      1.5002833      21.10888       18.141931     -4.4672313      125401.82      145.36536      28.057542      28.057542     -0.3897387     -0.010393579    0.012170309    0.044032668    0.0029516468   0.026792819    87009.894      183.1053     
  39920000   39920          1.00177       -0.17962259     16.651354      1.5026403      21.109173      18.153995     -4.457819       124175.36      145.37507      28.056419      28.056419     -0.46779155    -0.022547753   -0.048528457    0.0042005888   0.0011058883   0.017788976    87020.877      174.39054    
  39924000   39924          0.99955022    -0.08340863     16.646006      1.4993107      21.108625      18.145317     -4.4626191      125074.38      145.38477      28.047848      28.047848     -0.35024278     0.01991015     0.080106743   -0.015649434   -0.038598136    0.012829884    87031.776      165.67516    
  39928000   39928          1.0011888     -0.076107329    16.648037      1.5017685      21.107955      18.149805     -4.459918       124624.04      145.39448      28.05026       28.05026      -0.26884878     0.025281553    0.01524524     0.012694428   -0.064363463   -0.001389802    87042.648      156.95929    
  39932000   39932          1.0038949     -0.068207003    16.65396       1.5058277      21.106696      18.159788     -4.4527367      123610.56      145.40418      28.061926      28.061926     -0.32159686     0.092251036    0.024724817   -0.052677529   -0.0086492534  -0.016332101    87052.932      148.242      
  39936000   39936          0.99965258    -0.10240989     16.646637      1.4994642      21.109531      18.146101     -4.462894       125023.09      145.41389      28.046248      28.046248     -0.36750541     0.010523346    0.049752387   -0.032428523   -0.043332354    0.045942553    87063.416      139.5247     
  39940000   39940          1.0027415     -0.10793369     16.643336      1.5040976      21.108057      18.147434     -4.4647211      124896.11      145.42359      28.045944      28.045944     -0.39894105     0.0090029851   0.066136994   -0.02574473    -0.020542351   -0.049932779    87074.235      130.80756    
  39944000   39944          0.99741816    -0.11337343     16.638373      1.4961126      21.109667      18.134486     -4.4712938      126232.62      145.4333       28.041907      28.041907     -0.40127287    -0.0029600066   0.064112599   -0.06413841    -0.0098847407  -0.0026962295   87084.672      122.08947    
  39948000   39948          0.99821767    -0.14366096     16.641565      1.4973119      21.106921      18.138877     -4.4653557      125792.43      145.443        28.046723      28.046723     -0.37735635     0.0033249232  -0.056951453    0.01778417    -0.054744092   -0.0079896704   87095.444      113.37146    
  39952000   39952          1.0001987     -0.12091146     16.648717      1.5002835      21.106914      18.149001     -4.4581971      124764.22      145.45271      28.067233      28.067233     -0.33875502    -0.029604516    0.0056251518  -0.014267513    0.014921983   -0.035921369    87106.431      104.6533     
  39956000   39956          0.99740918    -0.11397147     16.653823      1.4960992      21.109458      18.149922     -4.455635       124679.67      145.46241      28.069062      28.069062     -0.35330242     0.00021632383  0.011171686   -0.0026405588  -0.015990964    0.048232154    87117.396      95.934664    
  39960000   39960          0.9950293     -0.050294121    16.644593      1.4925294      21.110621      18.137122     -4.4660288      126001.25      145.47211      28.036212      28.036212     -0.31048254     0.07777975     0.081820422   -0.013882372   -0.0095232354   0.012571657    87128.375      87.215591    
  39964000   39964          0.99745989    -0.088427601    16.649833      1.4961752      21.108799      18.146009     -4.4589656      125099.87      145.48182      28.057369      28.057369     -0.29051584    -0.0081807319   0.033413765   -0.018864492   -0.017850556   -0.0015236177   87139.282      78.496001    
  39968000   39968          1.0001124     -0.14693931     16.649124      1.5001539      21.110816      18.149278     -4.4616927      124774.67      145.49152      28.045632      28.045632     -0.38623914     0.0083185177  -0.062897319    0.013324353   -0.046792741   -0.010066776    87150.576      69.776282    
  39972000   39972          0.99915058    -0.11141834     16.641592      1.4987113      21.106156      18.140303     -4.4645645      125704.07      145.50123      28.031746      28.031746     -0.34631366     0.04426846    -0.032209806    0.018624491    0.0013237564  -0.004329056    87161.882      61.056057    
  39976000   39976          0.99656321    -0.09368357     16.639178      1.4948302      21.106343      18.134008     -4.4671654      126358.98      145.51093      28.028121      28.028121     -0.3089822      0.042297594   -0.0143661     -0.0064295001   0.04450813     0.027409652    87172.919      52.335153    
  39980000   39980          0.99824365    -0.16923265     16.649781      1.4973509      21.108527      18.147132     -4.4587459      125023.66      145.52064      28.051069      28.051069     -0.39807329    -0.017615488   -0.092009182    0.017139301    0.012334075   -0.036833881    87183.789      43.613701    
  39984000   39984          1.0024595     -0.1374551      16.651262      1.5036745      21.108954      18.154936     -4.4576922      124233.36      145.53034      28.055413      28.055413     -0.38135261    -0.026484991   -0.0045276919   0.007288197   -0.025900197    0.033112303    87194.569      34.891784    
  39988000   39988          0.99741539    -0.11311891     16.642916      1.4961085      21.109923      18.139025     -4.467007       125874.14      145.54005      28.030114      28.030114     -0.36781643     0.0049547073   0.023504982   -0.031516711    0.023892314    0.010685667    87205.568      26.169521    
  39992000   39992          0.99863617    -0.12517958     16.641237      1.4979396      21.104524      18.139177     -4.4632874      125867.95      145.54975      28.03815       28.03815      -0.37355985    -0.0091960239   0.0072171337   0.011893615    0.024072076    0.025266944    87216.644      17.446818    
  39996000   39996          0.9992874     -0.087797361    16.652682      1.4989165      21.110426      18.151598     -4.4577443      124604.41      145.55946      28.039375      28.039375     -0.34397764     0.031227127    0.049358433    0.016919342   -0.013763506   -0.018804735    87227.679      8.7236403    
  40000000   40000          1.0041151     -0.1015527      16.644048      1.5061579      21.10718       18.150206     -4.4631326      124756.76      145.56916      28.0313        28.0313       -0.38306101     0.037825787    0.040577129   -0.0036568373   0.01727827     0.054881162    87238.61       0            
Loop time of 87238.6 on 18 procs for 40000000 steps with 102500 atoms

Performance: 39615.488 tau/day, 458.513 timesteps/s
93.1% CPU use with 18 MPI tasks x 1 OpenMP threads

MPI task timing breakdown:
Section |  min time  |  avg time  |  max time  |%varavg| %total
---------------------------------------------------------------
Pair    | 9825.3     | 10422      | 11994      | 516.7 | 11.95
Bond    | 11539      | 12132      | 14679      | 711.8 | 13.91
Neigh   | 261.45     | 281.1      | 304.82     |  70.6 |  0.32
Comm    | 15999      | 19471      | 20552      | 798.7 | 22.32
Output  | 942.49     | 942.56     | 942.61     |   0.1 |  1.08
Modify  | 41043      | 41703      | 42200      | 158.7 | 47.80
Other   |            | 2288       |            |       |  2.62

Nlocal:        5694.44 ave        5726 max        5657 min
Histogram: 2 0 2 1 3 1 4 1 3 1
Nghost:        9986.06 ave       10031 max        9900 min
Histogram: 1 1 1 0 3 1 3 0 1 7
Neighs:              0 ave           0 max           0 min
Histogram: 18 0 0 0 0 0 0 0 0 0

Total # of neighbors = 0
Ave neighs/atom = 0
Ave special neighs/atom = 6.6256976
Neighbor list builds = 1331885
Dangerous builds = 0

# GENERATION RESTART
write_restart ./out.deform.restart
System init for write_restart ...
Generated 0 of 36 mixed pair_coeff terms from geometric mixing rule
write_data    ./out.deform.data pair ij
System init for write_data ...
Generated 0 of 36 mixed pair_coeff terms from geometric mixing rule
Total wall time: 24:14:02
