LAMMPS (15 Sep 2022)
OMP_NUM_THREADS environment is not set. Defaulting to 1 thread. (src/comm.cpp:98)
  using 1 OpenMP thread(s) per MPI task
# LAMMPS Script for deform
# Generated 12/17/2022

# INIT PARAMS & READ CONF
include   "/work_bgfs/h/harshad/simulation_9/neat_polymer/config_2/system.init"
# UNITS
units		lj
dimension	3
atom_style	bond

# INPUT FILE
pair_style	lj/cut 2.5
bond_style	fene
read_data /work_bgfs/h/harshad/simulation_9/neat_polymer/config_2/quiescent/thermal_replicates/2.npt.data
Reading data file ...
  orthogonal box = (-24.257191 -24.257191 -24.257191) to (24.257191 24.257191 24.257191)
  2 by 3 by 3 MPI processor grid
  reading atoms ...
  102500 atoms
  reading velocities ...
  102500 velocities
  scanning bonds ...
  2 = max bonds/atom
  reading bonds ...
  104500 bonds
Finding 1-2 1-3 1-4 neighbors ...
  special bond factors lj:    0        0        0       
  special bond factors coul:  0        0        0       
     4 = max # of 1-2 neighbors
     4 = max # of 1-3 neighbors
     8 = max # of 1-4 neighbors
    12 = max # of special neighbors
  special bonds CPU = 0.005 seconds
  read_data CPU = 0.605 seconds
include   "/work_bgfs/h/harshad/simulation_9/neat_polymer/config_2/system.settings"
# ATOM TYPE
mass  1  1.0 #backbone
mass  2  1.0 #endmer
mass  3  1.0 #crosslinker
mass  4  1.0 #outer shell
mass  5  1.0 #inner shell 2
mass  6  1.0 #inner-most shell
mass  7  1.0 #center bead
mass  8  1.0 #endmer post crosslinking
mass  9  1.0 #crosslinker post crosslinking

# BOND
bond_coeff * 30.0 1.50 1.0 1.0
special_bonds lj 0.0 1.0 1.0
Finding 1-2 1-3 1-4 neighbors ...
  special bond factors lj:    0        1        1       
  special bond factors coul:  0        0        0       
     4 = max # of 1-2 neighbors
     4 = max # of 1-3 neighbors
     8 = max # of 1-4 neighbors
    12 = max # of special neighbors
  special bonds CPU = 0.003 seconds

# PAIR
pair_coeff  1*9 1*9 1.0 1.0 2.5

pair_modify  shift yes
neigh_modify delay 1 check yes

# MAKE GROUPS
group polymer type 1 2 3 8 9
102500 atoms in group polymer
#group ins     type 1
#group strand  type 1 2 8
#group ends    type 2 8
#group xlinks  type 3 9
#group filler  type 4 5 6 7

# INPUTS FROM SBATCH
variable Temp          equal 1.0
variable gamma_total   equal 2.0
variable gamma_rate    equal 0.00005
variable dt            equal 0.001
variable Nfreq         equal 4000
variable Nrepeat_2     equal 100
variable Nevery_1      equal 1
variable Nrepeat_1     equal 1

variable Run           equal ${gamma_total}/${gamma_rate}/${dt}
variable Run           equal 2/${gamma_rate}/${dt}
variable Run           equal 2/5e-05/${dt}
variable Run           equal 2/5e-05/0.001

# RUN OPTIONS
run_style verlet
timestep  ${dt}
timestep  0.001

# RESTART
restart  ${Nfreq} cycle.1.restart cycle.2.restart
restart  4000 cycle.1.restart cycle.2.restart

## SAVE RESTARTS EVERY 10% EXTENSION
#variable RestFreq      equal 0.1/${gamma_rate}/${dt}
#restart  ${RestFreq} deform.*.restart
#
# COMPUTE ke/atom, pe/atom, pxx/atom, position and time-avg
compute     ke_atm          all     ke/atom
compute     p_atm           all     stress/atom NULL
compute     pe_atm          all     pe/atom
compute     ebond_atm       all     pe/atom bond
compute     posit_atm       all     property/atom x y z
fix         avg_ke_atm_1    all     ave/atom ${Nevery_1} ${Nrepeat_1} ${Nfreq} c_ke_atm
fix         avg_ke_atm_1    all     ave/atom 1 ${Nrepeat_1} ${Nfreq} c_ke_atm
fix         avg_ke_atm_1    all     ave/atom 1 1 ${Nfreq} c_ke_atm
fix         avg_ke_atm_1    all     ave/atom 1 1 4000 c_ke_atm
fix         avg_pxx_atm_1   all     ave/atom ${Nevery_1} ${Nrepeat_1} ${Nfreq} c_p_atm[*]
fix         avg_pxx_atm_1   all     ave/atom 1 ${Nrepeat_1} ${Nfreq} c_p_atm[*]
fix         avg_pxx_atm_1   all     ave/atom 1 1 ${Nfreq} c_p_atm[*]
fix         avg_pxx_atm_1   all     ave/atom 1 1 4000 c_p_atm[*]
fix         avg_pe_atm_1    all     ave/atom ${Nevery_1} ${Nrepeat_1} ${Nfreq} c_pe_atm
fix         avg_pe_atm_1    all     ave/atom 1 ${Nrepeat_1} ${Nfreq} c_pe_atm
fix         avg_pe_atm_1    all     ave/atom 1 1 ${Nfreq} c_pe_atm
fix         avg_pe_atm_1    all     ave/atom 1 1 4000 c_pe_atm
#fix         avg_posit_atm_1 all     ave/atom ${Nevery_1} ${Nrepeat_1} ${Nfreq} c_posit_atm[1] c_posit_atm[2] c_posit_atm[3]
dump        dump_1 all custom ${Nfreq} ${out_dir}traj.${Nevery_1}_${Nrepeat_1}_${Nfreq}.xyz mol type x y z f_avg_ke_atm_1 f_avg_pe_atm_1 f_avg_pxx_atm_1[*]
dump        dump_1 all custom 4000 ${out_dir}traj.${Nevery_1}_${Nrepeat_1}_${Nfreq}.xyz mol type x y z f_avg_ke_atm_1 f_avg_pe_atm_1 f_avg_pxx_atm_1[*]
dump        dump_1 all custom 4000 /shares_bgfs/dssimmons_data/harshad/deform/neat_polymer/config_2/2_deformwork_bgfs--h--harshad--simulation_9--neat_polymer--config_2--2_deform--traj.${Nevery_1}_${Nrepeat_1}_${Nfreq}.xyz mol type x y z f_avg_ke_atm_1 f_avg_pe_atm_1 f_avg_pxx_atm_1[*]
dump        dump_1 all custom 4000 /shares_bgfs/dssimmons_data/harshad/deform/neat_polymer/config_2/2_deformwork_bgfs--h--harshad--simulation_9--neat_polymer--config_2--2_deform--traj.1_${Nrepeat_1}_${Nfreq}.xyz mol type x y z f_avg_ke_atm_1 f_avg_pe_atm_1 f_avg_pxx_atm_1[*]
dump        dump_1 all custom 4000 /shares_bgfs/dssimmons_data/harshad/deform/neat_polymer/config_2/2_deformwork_bgfs--h--harshad--simulation_9--neat_polymer--config_2--2_deform--traj.1_1_${Nfreq}.xyz mol type x y z f_avg_ke_atm_1 f_avg_pe_atm_1 f_avg_pxx_atm_1[*]
dump        dump_1 all custom 4000 /shares_bgfs/dssimmons_data/harshad/deform/neat_polymer/config_2/2_deformwork_bgfs--h--harshad--simulation_9--neat_polymer--config_2--2_deform--traj.1_1_4000.xyz mol type x y z f_avg_ke_atm_1 f_avg_pe_atm_1 f_avg_pxx_atm_1[*]
dump_modify dump_1 append yes sort id

# COMPUTE a separate pe and ke for each group, AVG & SAVE
compute   pe_polymer    all reduce  sum c_pe_atm
compute   ke_polymer    all reduce  sum c_ke_atm
compute   ebond_polymer all reduce  sum c_ebond_atm
compute   pxx_polymer   all reduce  sum c_p_atm[1] c_p_atm[2] c_p_atm[3]
compute   pxy_polymer   all reduce  sum c_p_atm[4] c_p_atm[5] c_p_atm[6]
fix 		  avgEnergy     all     ave/time ${Nevery_1} ${Nrepeat_2} ${Nfreq} c_pe_polymer c_ke_polymer c_ebond_polymer c_pxy_polymer[1] c_pxy_polymer[2] c_pxy_polymer[3] file energy.avg.csv
fix 		  avgEnergy     all     ave/time 1 ${Nrepeat_2} ${Nfreq} c_pe_polymer c_ke_polymer c_ebond_polymer c_pxy_polymer[1] c_pxy_polymer[2] c_pxy_polymer[3] file energy.avg.csv
fix 		  avgEnergy     all     ave/time 1 100 ${Nfreq} c_pe_polymer c_ke_polymer c_ebond_polymer c_pxy_polymer[1] c_pxy_polymer[2] c_pxy_polymer[3] file energy.avg.csv
fix 		  avgEnergy     all     ave/time 1 100 4000 c_pe_polymer c_ke_polymer c_ebond_polymer c_pxy_polymer[1] c_pxy_polymer[2] c_pxy_polymer[3] file energy.avg.csv
fix       avgPxx_all    all     ave/time ${Nevery_1} ${Nfreq} ${Nfreq}     c_pxx_polymer[1] c_pxx_polymer[2] c_pxx_polymer[3]                                           file pxx.all.avg.csv
fix       avgPxx_all    all     ave/time 1 ${Nfreq} ${Nfreq}     c_pxx_polymer[1] c_pxx_polymer[2] c_pxx_polymer[3]                                           file pxx.all.avg.csv
fix       avgPxx_all    all     ave/time 1 4000 ${Nfreq}     c_pxx_polymer[1] c_pxx_polymer[2] c_pxx_polymer[3]                                           file pxx.all.avg.csv
fix       avgPxx_all    all     ave/time 1 4000 4000     c_pxx_polymer[1] c_pxx_polymer[2] c_pxx_polymer[3]                                           file pxx.all.avg.csv

# TIME-AVG Ly
variable Ly equal ly
fix       avgLy         all     ave/time ${Nevery_1} ${Nfreq} ${Nfreq}     v_Ly  file Ly.avg.csv
fix       avgLy         all     ave/time 1 ${Nfreq} ${Nfreq}     v_Ly  file Ly.avg.csv
fix       avgLy         all     ave/time 1 4000 ${Nfreq}     v_Ly  file Ly.avg.csv
fix       avgLy         all     ave/time 1 4000 4000     v_Ly  file Ly.avg.csv

# SIMULATION FIXES
fix  npt        all npt temp ${Temp} ${Temp} 2.0 y 0 0 5 z 0 0 5 couple yz
fix  npt        all npt temp 1 ${Temp} 2.0 y 0 0 5 z 0 0 5 couple yz
fix  npt        all npt temp 1 1 2.0 y 0 0 5 z 0 0 5 couple yz
fix  mom        all momentum 10000 linear 1 1 1
fix  deform     all deform 1 x erate ${gamma_rate} remap x units box
fix  deform     all deform 1 x erate 5e-05 remap x units box

# THERMO
variable  thermo_frq equal ${Nfreq}
variable  thermo_frq equal 4000
thermo    ${thermo_frq}
thermo    4000
thermo_style  custom step time temp press pe ke ebond etotal epair ecouple lx ly lz pxx pyy pzz pxy pxz pyz cpu cpuremain

# deform
run ${Run}
run 40000000
Generated 0 of 36 mixed pair_coeff terms from geometric mixing rule
Neighbor list info ...
  update: every = 1 steps, delay = 1 steps, check = yes
  max neighbors/atom: 2000, page size: 100000
  master list distance cutoff = 2.8
  ghost atom cutoff = 2.8
  binsize = 1.4, bins = 35 35 35
  1 neighbor lists, perpetual/occasional/extra = 1 0 0
  (1) pair lj/cut, perpetual
      attributes: half, newton on
      pair build: half/bin/newton
      stencil: half/bin/3d
      bin: standard
WARNING: Inconsistent image flags (src/domain.cpp:819)
Per MPI rank memory allocation (min/avg/max) = 12.77 | 12.77 | 12.78 Mbytes
   Step          Time           Temp          Press          PotEng         KinEng         E_bond         TotEng         E_pair        Ecouple           Lx             Ly             Lz            Pxx            Pyy            Pzz            Pxy            Pxz            Pyz            CPU          CPULeft    
         0   0              1.0010865     -0.016061602    16.638292      1.5016152      21.106089      18.139907     -4.4677967      0              48.514382      48.514382      48.514382     -0.033682172    0.042635931   -0.057138566   -0.034347348   -0.012807788    0.053100174    0              0            
      4000   4              1.0001213      0.029862531    16.62795       1.5001674      21.107752      18.128117     -4.4798023      1228.6915      48.524085      48.483079      48.483079      0.044889738    0.07884675    -0.034148896    0.020869389    0.035436153   -0.056889931    36.286725      362830.98    
      8000   8              0.99649459    -0.019196031    16.633283      1.4947273      21.107768      18.128011     -4.4744842      1260.3096      48.533787      48.50184       48.50184      -0.03965659     0.0044122031  -0.022343708    0.024114854    0.032718117    0.020952201    72.909252      364473.36    
     12000   12             0.99717976    -0.024448964    16.641659      1.495755       21.112085      18.137414     -4.470426       317.37429      48.54349       48.518141      48.518141     -0.058148833   -0.039082779    0.02388472     0.035837668    0.014989857    0.050099439    108.06224      360099.4     
     16000   16             0.99708776     0.0098163311   16.637034      1.4956171      21.10471       18.132651     -4.4676751      826.16904      48.553193      48.503189      48.503189     -0.019329564   -0.021930912    0.07070947     0.0072720603   0.0082266491   0.009614934    143.53385      358691.09    
     20000   20             0.99589941    -0.017925606    16.625487      1.4938345      21.10199       18.119322     -4.476503       2212.583       48.562896      48.477511      48.477511      0.0088537758  -0.023711635   -0.038918958   -0.013672987    0.040096025   -0.0048169404   180.20055      360220.91    
     24000   24             0.99536107     0.0029201762   16.635451      1.493027       21.107139      18.128478     -4.4716887      1294.7911      48.572599      48.477935      48.477935     -0.035255398    0.035454274    0.0085616528   0.0094962815   0.0078295332   0.00077893514  216.10523      359959.27    
     28000   28             0.99960333    -0.055375549    16.635758      1.4993904      21.10439       18.135149     -4.4686317      631.2352       48.582302      48.508375      48.508375     -0.049429439   -0.1010802     -0.015617006    0.011490086   -0.026777831    0.011604449    252.33069      360220.08    
     32000   32             1.0003702      0.026153275    16.64054       1.5005407      21.105164      18.14108      -4.4646244      44.150817      48.592005      48.513257      48.513257     -0.042475544    0.04324975     0.077685618    0.01268715    -0.059776976   -0.010189506    288.77738      360682.95    
     36000   36             0.99824487     0.016662559    16.628206      1.4973527      21.102865      18.125559     -4.4746587      1655.6471      48.601708      48.438294      48.438294      0.045648957    0.019526302   -0.01518758     0.0021054409  -0.077770652    0.006595134    325.50994      361352.21    
     40000   40             1.0051201      0.019189595    16.628537      1.5076655      21.106707      18.136203     -4.4781697      585.24757      48.61141       48.443981      48.443981      0.02086714     0.045796252   -0.0090946056  -0.027274907   -0.032078266    0.020067999    362.64236      362279.72    
     44000   44             1.0001012      0.010473233    16.639056      1.5001372      21.112574      18.139194     -4.4735174      299.90346      48.621113      48.450733      48.450733      0.034057337    0.0082439488  -0.010881587   -0.0092579714   0.016851898   -0.025356141    399.6323       362902.46    
     48000   48             1.0021855      0.07146196     16.632882      1.5032636      21.107093      18.136146     -4.4742106      632.5947       48.630816      48.425748      48.425748      0.10914828     0.059741619    0.045495981   -0.002613046    0.0058462191   0.0045151984   436.38915      363221.24    
     52000   52             0.99854891    -0.011904743    16.630435      1.4978088      21.104529      18.128244     -4.4740938      1463.527       48.640519      48.422591      48.422591     -9.4924925e-05 -0.043121477    0.007502172    0.0034439205   0.073412587    0.016353477    473.13511      363476.95    
     56000   56             0.99588057     0.05988308     16.635974      1.4938063      21.107905      18.12978      -4.4719317      1326.7594      48.650222      48.439884      48.439884      0.060818519    0.030106245    0.088724475   -0.010892163    0.041929536    0.0077035766   509.28155      363263.25    
     60000   60             0.99961961     0.064254985    16.642807      1.4994148      21.106934      18.142222     -4.4641269      72.472293      48.659925      48.43988       48.43988       0.096046431    0.045076216    0.051642309   -0.0029634527  -0.041402973    0.02385576     545.20381      362924       
     64000   64             0.9980527      0.024340204    16.636181      1.4970644      21.104535      18.133245     -4.4683542      1013.195       48.669628      48.427842      48.427842     -0.010843091    0.027115978    0.056747725   -0.018667576    0.0086566215   0.02687627     581.60509      362921.58    
     68000   68             1.0006062      0.0092777033   16.631885      1.5008946      21.104282      18.13278      -4.4723969      1081.1749      48.679331      48.417968      48.417968      0.023312005    0.031695296   -0.027174192   -0.034698145   -0.0023580118   0.03620833     618.06527      362949.74    
     72000   72             1.0032499      0.023161787    16.629415      1.5048602      21.105212      18.134275     -4.4757969      947.83926      48.689034      48.407597      48.407597      0.021365186    0.021249779    0.026870398   -0.0080471116   0.017596167   -0.046504961    654.83706      363143.53    
     76000   76             0.99781113     0.022322372    16.62999       1.4967021      21.10728       18.126693     -4.477289       1745.8593      48.698736      48.392059      48.392059      0.051317028    0.0039604661   0.011689623    0.032189965   -0.035766327   -0.0021870987   692.28434      363667.89    
     80000   80             1.0019029      0.016358109    16.627329      1.5028396      21.102822      18.130169     -4.4754932      1409.4647      48.708439      48.393393      48.393393     -0.0039619785   0.0040836851   0.048952622   -0.016719604   -0.068705047    0.020380295    729.12341      363832.58    
     84000   84             1.0036346      0.04851618     16.63406       1.5054372      21.107803      18.139498     -4.4737427      474.27413      48.718142      48.393711      48.393711     -0.015200993    0.10150346     0.059246077    0.048900184    0.03731943    -0.030816024    764.87641      363461.99    
     88000   88             0.99779413     0.0061239887   16.632815      1.4966766      21.108057      18.129491     -4.4752421      1520.6354      48.727845      48.393878      48.393878     -0.033067011    0.0559686     -0.0045296234  -0.0045095859   0.0086228607  -0.024131774    801.21407      363387       
     92000   92             0.9951782      0.069433988    16.625553      1.4927527      21.105189      18.118306     -4.4796357      2687.6382      48.737548      48.368391      48.368391      0.067717011    0.086312527    0.054272427    0.0091486206   0.0069840642   0.012578402    839.36208      364100.67    
     96000   96             0.99804793     0.051808197    16.631805      1.4970573      21.107298      18.128862     -4.4754932      1626.0481      48.747251      48.37888       48.37888       0.080326281    0.033947316    0.041150993    0.0080667274  -0.026094335    0.013145226    876.37802      364281.13    
    100000   100            1.0016951      0.02212925     16.636362      1.5025281      21.104827      18.13889      -4.4684651      618.66431      48.756954      48.407629      48.407629      0.062551946    0.0045347378  -0.00069893376  0.0029958736  -0.041485048    0.0084314598   912.64366      364144.82    
    104000   104            1.0015436      0.013551897    16.636539      1.5023008      21.109557      18.13884      -4.4730177      644.48237      48.766657      48.395742      48.395742      0.054776202    0.034009338   -0.048129849   -0.02441638     0.022387166    0.026454672    948.19905      363743.74    
    108000   108            1.0016058      0.027347449    16.623407      1.502394       21.104396      18.125801     -4.4809885      2000.8898      48.776359      48.349537      48.349537      0.021319564    0.021677229    0.039045554   -0.044540064   -0.027587354    0.010648799    983.88536      363418.1     
    112000   112            1.002783      -0.033346867    16.632258      1.5041599      21.106658      18.136418     -4.4743996      933.9128       48.786062      48.377147      48.377147     -0.050996847   -0.017022001   -0.032021753    0.0046724952   0.0020830585   0.043868689    1021.0851      363652.17    
    116000   116            1.0006792      0.025808409    16.635025      1.5010042      21.104134      18.13603      -4.4691082      994.4493       48.795765      48.383523      48.383523      0.0050743488   0.024295324    0.048055553   -0.0024278699  -0.031481473    0.0012508999   1057.9286      363745.04    
    120000   120            0.99797809    -0.049960159    16.632326      1.4969525      21.106074      18.129278     -4.4737482      1707.041       48.805468      48.384404      48.384404     -0.01023172    -0.06868038    -0.070968376   -0.013907744    0.0084532562   0.040980154    1095.1177      363944.13    
    124000   124            0.99569524    -0.0063491735   16.628516      1.4935283      21.106979      18.122044     -4.4784628      2469.0526      48.815171      48.349226      48.349226     -0.0040133044   0.012082483   -0.0271167      0.044796603    0.016889215   -0.04624155     1131.9973      364028.43    
    128000   128            1.0002488      0.021302546    16.636534      1.5003585      21.107189      18.136892     -4.4706554      967.97836      48.824874      48.355476      48.355476      0.017766917    0.026270224    0.019870498   -0.014240932   -0.00046485783 -0.024727326    1168.7103      364053.26    
    132000   132            0.99864033    -0.024835793    16.636246      1.4979459      21.107813      18.134191     -4.4715675      1265.4887      48.834577      48.361929      48.361929     -0.073647196    0.026381315   -0.027241499   -0.024506355   -0.00014502067 -0.005101127    1205.9044      364219.68    
    136000   136            0.99690089     0.052669936    16.629607      1.4953368      21.106602      18.124943     -4.4769958      2233.6018      48.84428       48.329598      48.329598      0.058006613    0.0011623561   0.098840839    0.00238247     0.041244245    0.009464151    1242.8094      364289.37    
    140000   140            0.99575599    -0.020402072    16.640006      1.4936194      21.108199      18.133625     -4.4681933      1364.4672      48.853982      48.345429      48.345429      0.019756062   -0.040096741   -0.040865538    0.038350396   -0.021496714    0.0059831335   1279.2233      364213.16    
    144000   144            1.0003206      0.01860902     16.640008      1.5004663      21.104141      18.140475     -4.4641331      682.66373      48.863685      48.36061       48.36061       0.0165712      0.010014317    0.029241542    0.022748752   -0.019001315    0.02130021     1316.2028      364295.67    
    148000   148            1.0055774     -0.006854743    16.62924       1.5083514      21.106457      18.137591     -4.4772176      998.4818       48.873388      48.325156      48.325156     -0.019036489   -0.016465227    0.014937487    0.0063751449   0.023977887   -0.003965407    1353.1696      364368.34    
    152000   152            0.99736199    -0.0073116519   16.632643      1.4960284      21.106596      18.128671     -4.4739533      1933.825       48.883091      48.322938      48.322938     -0.0070785397   0.011676145   -0.026532561    0.026397352   -0.00064240827 -0.030085436    1389.084       364159.35    
    156000   156            1.0009477      0.021687069    16.637843      1.501407       21.106938      18.13925      -4.4690952      870.16488      48.892794      48.334498      48.334498      0.0051773219   0.055447512    0.0044363725  -0.0046702703   0.016940608   -0.0024660128   1425.4991      364087.1     
    160000   160            1.0026352      0.050445262    16.641258      1.5039382      21.110985      18.145196     -4.4697272      281.24356      48.902497      48.329382      48.329382      0.045780086    0.047105416    0.058450285    0.020061649    0.012418793    0.0072870826   1461.543       363924.2     
    164000   164            1.0014407      0.01656768     16.635582      1.5021464      21.107229      18.137729     -4.4716462      1067.2154      48.9122        48.316586      48.316586      0.03743018    -0.019129777    0.031402636   -0.028825047    0.018624845    0.010699715    1498.4989      363989.03    
    168000   168            0.99330406    -0.0096569072   16.634311      1.4899416      21.103577      18.124253     -4.469266       2468.7536      48.921903      48.313556      48.313556     -0.043217469   -0.008534709    0.022781456   -0.012121182   -0.001201416    0.026371966    1534.7471      363881.23    
    172000   172            1.0007543     -0.053328047    16.628802      1.5011169      21.10231       18.129919     -4.4735082      1908.2967      48.931605      48.319971      48.319971     -0.077439971   -0.045685942   -0.036858229   -0.039624069   -0.062100908    0.067456993    1571.4822      363889.48    
    176000   176            0.99770452    -0.032569759    16.64192       1.4965422      21.106533      18.138463     -4.4646129      1053.2243      48.941308      48.328964      48.328964     -0.043831241   -0.024257257   -0.029620778    0.030901362   -0.034971496    0.041920647    1607.5014      363733.72    
    180000   180            1.0006235      0.037811294    16.635909      1.5009207      21.104712      18.13683      -4.4688024      1240.746       48.951011      48.30734       48.30734       0.049434326    0.0059064218   0.058093133    0.0075035891  -0.055009116    0.012710935    1643.9035      363667.98    
    184000   184            0.99845225    -0.013837133    16.629969      1.4976638      21.104874      18.127633     -4.4749055      2203.9404      48.960714      48.262744      48.262744      0.015865178    0.013998989   -0.071375566   -0.0087230223   0.0037201188   0.00012793696  1680.3016      363602.65    
    188000   188            1.0014597      0.034047407    16.637052      1.5021749      21.110538      18.139227     -4.4734852      1035.7452      48.970417      48.274647      48.274647     -0.014692416    0.035771707    0.081062929    0.0047814234  -0.012734476    0.05244673     1716.4411      363483.79    
    192000   192            1.0012421     -0.011274005    16.636901      1.5018485      21.108271      18.138749     -4.4713703      1105.1829      48.98012       48.275643      48.275643     -0.0081725247   0.021262911   -0.0469124      0.023023607   -0.01564256    -0.0023713363   1753.5301      363565.24    
    196000   196            1.0005279     -0.0084349053   16.631158      1.5007772      21.108807      18.131935     -4.4776487      1823.5823      48.989823      48.26149       48.26149      -0.04233379     0.039307666   -0.022278592   -0.020137269    0.0066328033  -0.0020387852   1790.0819      363532.75    
    200000   200            1.0002336      0.0359724      16.63283       1.5003357      21.106675      18.133166     -4.473845       1717.6981      48.999526      48.266829      48.266829     -0.021162751    0.078414169    0.050665782    0.034014172   -0.018426572   -0.037849004    1827.2373      363620.23    
    204000   204            0.9999376     -0.015742443    16.636926      1.4998918      21.109232      18.136817     -4.4723061      1364.3249      49.009228      48.27654       48.27654      -0.0063348175  -0.061302533    0.020410022    0.012259827    0.0066600475  -0.032798314    1863.4336      363515.7     
    208000   208            1.0004906      0.012291872    16.642875      1.5007213      21.110036      18.143597     -4.467161       689.98488      49.018931      48.279005      48.279005      0.038021098    0.0084621663  -0.0096076477  -0.044967625    0.01713608     0.023615837    1900.619       363603.04    
    212000   212            1.0010794     -0.028306514    16.646983      1.5016045      21.109554      18.148587     -4.4625715      199.19014      49.028634      48.306453      48.306453     -0.063471593    0.0083227664  -0.029770716    0.0017373561   0.016195988   -0.016105618    1937.1551      363563.81    
    216000   216            0.99659267     0.026795637    16.639474      1.4948744      21.110994      18.134348     -4.4715199      1679.1168      49.038337      48.257905      48.257905      0.0038293685   0.029070998    0.047486545   -0.034967947   -0.048265003   -0.0096986424   1974.3003      363636.87    
    220000   220            0.9973444     -0.0071059427   16.63259       1.496002       21.108127      18.128592     -4.4755373      2289.3749      49.04804       48.237777      48.237777     -0.020005161   -0.036308568    0.034995901   -0.01408449    -0.013213805    0.0040492099   2011.7609      363762.95    
    224000   224            0.99902646     0.042457692    16.637762      1.4985251      21.107834      18.136287     -4.4700715      1520.8625      49.057743      48.24956       48.24956       0.029886866    0.10185743    -0.0043712233   0.010163158    0.01301319    -0.041891992    2049.2381      363886.13    
    228000   228            1.001303      -0.057417575    16.639661      1.5019398      21.106741      18.141601     -4.4670797      996.94529      49.067446      48.259437      48.259437     -0.081990629   -0.0076315302  -0.082630567   -0.018170045    0.037295145   -0.033215495    2086.2338      363919.69    
    232000   232            1.0002065     -0.032208511    16.627858      1.5002951      21.103188      18.128153     -4.4753302      2395.3012      49.077149      48.241738      48.241738     -0.094053768    0.0023735372  -0.0049453041  -0.026150979   -0.0096469075  -0.016019132    2123.8263      364053.12    
    236000   236            0.99674253    -0.0094102321   16.63876       1.4950992      21.109448      18.133859     -4.4706887      1831.4214      49.086851      48.242246      48.242246      0.00019586594 -0.01425709    -0.014169472   -0.0062993021  -0.031687028   -0.017429554    2160.2549      363984.64    
    240000   240            1.0057525     -0.0099849134   16.630523      1.5086141      21.100951      18.139137     -4.4704283      1310.2236      49.096554      48.234425      48.234425     -0.040399756    0.0042719083   0.0061731074  -0.048259805   -0.040341753   -0.0012046094   2197.5172      364055.35    
    244000   244            1.0024776      0.015175585    16.629033      1.5037018      21.105772      18.132735     -4.4767394      1986.8381      49.106257      48.215766      48.215766      0.076199662   -0.071166284    0.040493377    0.013790978    0.0035346367   0.0094314132   2234.4538      364069.44    
    248000   248            0.99321366     0.035336232    16.632664      1.489806       21.105671      18.12247      -4.4730065      3059.2176      49.11596       48.210227      48.210227      0.0060704271   0.039726699    0.060211572   -0.0086416328   0.014651189   -0.016730443    2271.5977      364115.13    
    252000   252            0.9990697     -0.023643451    16.637703      1.4985899      21.106323      18.136293     -4.4686199      1663.2853      49.125663      48.21613       48.21613      -0.074947712   -0.0080853696   0.012102729    0.013488138   -0.012977154    0.048755691    2307.0326      363888.62    
    256000   256            1.001539       0.023262651    16.641133      1.5022939      21.112074      18.143427     -4.4709412      952.56512      49.135366      48.194763      48.194763      0.0064845586   0.03749826     0.025805135    0.010497433   -0.017477463    0.013814178    2344.2331      363942.19    
    260000   260            1.000668       0.026841874    16.632109      1.5009873      21.104087      18.133097     -4.4719773      2031.5986      49.145069      48.18804       48.18804      -0.02500568     0.0050085585   0.10052274     0.0016570666   0.030058247   -0.025032608    2381.9205      364067.39    
    264000   264            1.0043327      0.096144379    16.631742      1.5064844      21.111718      18.138226     -4.4799767      1526.1183      49.154772      48.150021      48.150021      0.072590608    0.1117181      0.10412443     0.021190791    0.021533582   -0.0079215714   2417.3108      363841.9     
    268000   268            1.0045364      0.0198102      16.64066       1.5067899      21.108663      18.14745      -4.4680032      601.01078      49.164474      48.195807      48.195807     -0.00094927776 -0.0012939625   0.061673841    0.0083560905   0.044716557   -0.012488301    2454.3314      363863.79    
    272000   272            1.0022221      0.0029949      16.631272      1.5033186      21.108692      18.13459      -4.4774199      1939.6523      49.174177      48.159119      48.159119     -0.03952451     0.012739024    0.035770186    0.020390651    0.031877752   -0.046202173    2490.8232      363806.71    
    276000   276            1.0020634      0.044658987    16.631197      1.5030804      21.1049        18.134277     -4.4737035      1991.7918      49.18388       48.173539      48.173539      0.043691736    0.061082743    0.029202481    0.01063525    -0.012493488    0.024653081    2527.3303      363752.42    
    280000   280            0.99719331    -0.027927128    16.639275      1.4957754      21.108805      18.13505      -4.4695301      1933.5847      49.193583      48.186543      48.186543     -0.037070336   -0.017845506   -0.02886554     0.02397717    -0.01685243    -0.020738042    2564.1112      363737.49    
    284000   284            0.9933546     -0.019013321    16.630797      1.4900174      21.107003      18.120814     -4.476206       3412.9519      49.203286      48.162765      48.162765     -0.041968612   -0.012240932   -0.0028304186  -0.035205781   -0.039962742    0.0037620249   2600.5405      363672.77    
    288000   288            0.99866444     0.017584354    16.636187      1.497982       21.108144      18.134169     -4.4719573      2064.3719      49.212989      48.168479      48.168479      0.01754409     0.060117248   -0.024908277    0.023704203    0.01423558     0.017334184    2637.5362      363686.93    
    292000   292            1.0000296      0.0013154208   16.634687      1.5000298      21.107465      18.134716     -4.4727786      2028.8173      49.222692      48.155227      48.155227      0.007096286    0.015387761   -0.018537785    0.00021804467 -0.022613607    0.0034086474   2673.6224      363576.02    
    296000   296            0.99415748     0.033177161    16.630561      1.4912217      21.102228      18.121783     -4.4716667      3374.5603      49.232395      48.153116      48.153116     -0.012157582    0.05191541     0.059773656    0.0082445088  -0.010969059   -0.030702115    2710.4371      363564.85    
    300000   300            0.99765613    -0.02114451     16.638844      1.4964696      21.104581      18.135314     -4.4657367      2008.1128      49.242097      48.189795      48.189795     -0.0059100699  -0.047021593   -0.010501867    0.020878915   -0.02243301     0.0049499452   2747.1619      363541.09    
    304000   304            0.9995167     -0.025765103    16.636483      1.4992604      21.112355      18.135744     -4.4758718      1984.6707      49.2518        48.134822      48.134822     -0.032591885    0.0030902432  -0.047793666    0.00036570918 -0.0056628008  -0.00037365402  2784.0857      363542.98    
    308000   308            0.99858757    -0.037866361    16.630363      1.4978667      21.106136      18.12823      -4.4757724      2775.2346      49.261503      48.147231      48.147231     -0.012827702   -0.044704614   -0.056066768    0.038148684   -0.051305847    0.0069064213   2821.0316      363546.71    
    312000   312            1.0018526     -0.010700211    16.638627      1.5027642      21.108714      18.141391     -4.4700869      1446.7438      49.271206      48.148197      48.148197     -0.03997615     0.016722172   -0.0088466562  -0.070585568    0.0046683219  -0.012748212    2858.0242      363555.34    
    316000   316            1.0023292      0.037072028    16.634352      1.5034791      21.105057      18.137831     -4.4707055      1832.1363      49.280909      48.121672      48.121672      0.012582789    0.11797804    -0.019344742   -0.013791563   -0.0031626564   0.033013442    2895.259       363593.23    
    320000   320            1.000738      -0.026254094    16.629304      1.5010923      21.105099      18.130396     -4.4757953      2614.2348      49.290612      48.114618      48.114618     -0.035126824   -0.023461207   -0.020174252    0.0077465688  -0.0063719542   0.0033783726   2931.7157      363532.75    
    324000   324            0.99962337    -0.019983679    16.645695      1.4994204      21.11024       18.145115     -4.4645454      1125.748       49.300315      48.152015      48.152015     -0.040519163    0.037017715   -0.056449591    0.016436309   -0.016374821   -0.018307934    2968.778       363547.02    
    328000   328            0.99898487    -0.07208904     16.642986      1.4984627      21.10368       18.141449     -4.4606939      1522.0417      49.310018      48.153624      48.153624     -0.080891306   -0.099854973   -0.035520842   -0.012654246   -0.034458225    0.0013658313   3005.6434      363536.23    
    332000   332            1.0007743     -0.031736913    16.633292      1.5011468      21.104547      18.134439     -4.4712552      2260.6102      49.31972       48.122607      48.122607     -0.03018919    -0.019674462   -0.045347088    0.0029502065   0.0019869413  -0.010800265    3041.307       363381.22    
    336000   336            0.99855415    -0.007080311    16.634384      1.4978166      21.105359      18.1322       -4.4709755      2510.3032      49.329423      48.121887      48.121887     -0.025237759    0.039505631   -0.035508806   -0.010929181    0.0088680121  -0.00072378784  3078.0193      363352.85    
    340000   340            0.99844891     0.00037882602  16.630754      1.4976587      21.103728      18.128413     -4.4729736      2918.7379      49.339126      48.12558       48.12558      -0.049068932   -0.0036516242   0.053857035   -0.052982357    0.020714658   -0.023364742    3114.0361      363243.15    
    344000   344            0.99639921    -0.009309157    16.64444       1.4945842      21.110009      18.139024     -4.4655691      1851.8592      49.348829      48.127507      48.127507      0.015276325   -0.064197097    0.020993301   -0.012025474    0.0042091758  -0.016191313    3151.0535      363250.52    
    348000   348            0.99618687    -0.02851945     16.636164      1.4942657      21.108261      18.130429     -4.472097       2753.2066      49.358532      48.116108      48.116108     -0.023170534   -0.0097597587  -0.052628057   -0.015799312   -0.035395908   -0.073126971    3187.9965      363248.38    
    352000   352            0.99801379    -0.077736617    16.631598      1.4970061      21.103811      18.128604     -4.472213       2960.8579      49.368235      48.101137      48.101137     -0.1118376     -0.070107034   -0.051265216    0.0068379456   0.022574853    0.00038726495  3225.2514      363280.58    
    356000   356            1.0010433     -0.04439309     16.633877      1.5015503      21.104859      18.135427     -4.4709816      2281.8031      49.377938      48.119432      48.119432      0.0007937736  -0.08746329    -0.046509753   -0.014953167    0.024028135    0.0017765811   3262.2927      363287.45    
    360000   360            1.0006413     -0.021045228    16.632218      1.5009473      21.110239      18.133165     -4.4780215      2533.7951      49.387641      48.07602       48.07602      -0.049297531    0.0044947005  -0.018332854   -0.026204959   -0.01455134     0.0030873188   3297.7862      363122.91    
    364000   364            0.99684218     0.0015378907   16.629734      1.4952487      21.104928      18.124983     -4.475193       3392.0048      49.397343      48.065573      48.065573     -0.0014572335   0.026501902   -0.020430997    0.028661757   -0.015792093   -0.053619218    3334.8058      363127.37    
    368000   368            0.99901766    -0.014703938    16.635347      1.4985119      21.106056      18.133859     -4.4707095      2502.4706      49.407046      48.090856      48.090856     -0.028201402   -0.018763201    0.0028527901  -0.022053186   -0.03719594     0.027825716    3371.3187      363076.36    
    372000   372            1.0026835      0.02601407     16.632897      1.5040106      21.10538       18.136907     -4.472483       2210.1388      49.416749      48.057268      48.057268      0.0033042804   0.075889062   -0.0011511331  -0.037854835   -0.028475958   -0.00089928254  3407.9515      363038.44    
    376000   376            0.99822123    -0.027320575    16.636463      1.4973172      21.112533      18.13378      -4.4760699      2551.5605      49.426452      48.052554      48.052554     -0.059526086    0.0051222454  -0.027557883    0.024819675   -0.0036127118  -0.013333799    3444.9212      363036.06    
    380000   380            1.0043789     -0.0065414112   16.640517      1.5065536      21.104931      18.14707      -4.464414       1209.6813      49.436155      48.074828      48.074828      0.041349391    0.018682674   -0.079656298   -0.012139571   -0.014586877    0.0046344342   3481.6438      363007.17    
    384000   384            1.004366      -0.012457981    16.634603      1.5065343      21.104897      18.141137     -4.4702937      1837.6248      49.445858      48.039553      48.039553     -0.011337636    0.0070274569  -0.033063763    0.010015564   -0.028449163    0.01286007     3518.0305      362943.48    
    388000   388            1.0004951      0.019225474    16.633537      1.500728       21.105556      18.134265     -4.4720192      2562.2392      49.455561      48.043847      48.043847      0.041755036   -0.0048848606   0.020806246   -0.016570141   -0.020663219   -0.028518356    3555.0126      362941.13    
    392000   392            1.0058976     -0.015109       16.63381       1.5088317      21.109159      18.142641     -4.4753499      1724.0646      49.465264      48.036106      48.036106     -0.040048273    0.0068070589  -0.012085785    0.0011749066   0.033851262   -0.00086564642  3591.1167      362849.36    
    396000   396            0.9979717     -0.026338401    16.633012      1.496943       21.108321      18.129955     -4.4753094      3044.1463      49.474966      48.021819      48.021819     -0.021687472    0.0074290598  -0.06475679     0.018905391    0.0081247988   0.004580437    3627.7109      362807.73    
    400000   400            1.0024098      0.085771953    16.629455      1.5036         21.105081      18.133056     -4.4756259      2746.771       49.484669      48.012941      48.012941      0.051630237    0.12446998     0.081215636   -0.0047027679  -0.019181844    0.024611143    3664.5101      362786.5     
    404000   404            1.0057143      0.0010041564   16.63107       1.5085568      21.103748      18.139627     -4.4726781      2093.5031      49.494372      48.023159      48.023159     -0.0083535278   0.0074170492   0.003948948    0.032600926    0.032640372    0.044175396    3700.2337      362659.54    
    408000   408            1.000719      -0.0012551286   16.638278      1.5010638      21.104664      18.139342     -4.4663862      2142.9115      49.504075      48.024817      48.024817     -0.020392562    0.0020475613   0.014579615   -0.023167628   -0.010545912   -0.025804319    3735.8182      362520.87    
    412000   412            1.0006608     -0.0028403395   16.636317      1.5009765      21.109244      18.137294     -4.4729269      2373.4261      49.513778      48.010675      48.010675      0.032051037   -0.0016709502  -0.038901105    0.00018365345  0.00857385     0.0019793732   3771.6531      362408.26    
    416000   416            0.9980024      0.037122618    16.629888      1.496989       21.108872      18.126877     -4.4789834      3461.5391      49.523481      47.981237      47.981237      0.086861454   -0.0061498798   0.03065628     0.034926373   -0.007366177    0.015659216    3807.5308      362301.2     
    420000   420            1.001684       0.0079822525   16.634214      1.5025113      21.107442      18.136725     -4.4732284      2472.1169      49.533184      48.002271      48.002271      0.035097169   -0.0042638616  -0.0068865497   0.014214393    0.029093566    0.029067027    3843.6073      362214.23    
    424000   424            1.0031092      0.077923746    16.638065      1.5046492      21.107731      18.142714     -4.4696662      1878.7289      49.542887      47.996917      47.996917      0.13116921     0.067739187    0.034862847   -0.021399639    0.029852328   -0.0088314045   3879.8379      362142.6     
    428000   428            1.0010482     -0.015910576    16.630167      1.5015576      21.103907      18.131724     -4.4737402      3024.7011      49.55259       47.992055      47.992055     -0.052852386   -0.0096802796   0.014800939    0.0029850857   0.02152905    -0.016440814    3915.6828      362035.98    
    432000   432            0.99623868    -0.050636126    16.639649      1.4943434      21.106029      18.133992     -4.4663797      2812.8228      49.562292      48.017071      48.017071     -0.015016573   -0.060191759   -0.076700045    0.016840949    0.040604333   -0.022969844    3951.8325      361958.58    
    436000   436            0.99918722    -0.037471505    16.646161      1.4987662      21.107395      18.144928     -4.4612338      1712.4971      49.571995      48.028958      48.028958     -0.028490355   -0.016437886   -0.067486273    0.021618714   -0.045951953   -0.025924451    3987.6607      361852.77    
    440000   440            1.0001429     -0.02928968     16.632981      1.5001997      21.104578      18.13318      -4.4715972      2936.4856      49.581698      48.001109      48.001109      0.016183673   -0.062258941   -0.041793771    0.051396603   -0.0049807166  -0.012485829    4024.0713      361800.59    
    444000   444            0.99952901     0.05023182     16.634407      1.4992789      21.103148      18.133686     -4.4687414      2904.6387      49.591401      47.984938      47.984938      0.032036791    0.072857693    0.045800976    0.033693116    0.031019854    0.0074375092   4059.8278      361690.42    
    448000   448            1.0039279     -0.06104319     16.642943      1.5058772      21.107297      18.14882      -4.4643548      1374.3308      49.601104      48.009245      48.009245      0.0084733399  -0.086133851   -0.10546906    -0.0067155693  -0.032603581   -0.016883246    4095.8396      361604.13    
    452000   452            1.001664       0.0017409456   16.640216      1.5024813      21.106817      18.142698     -4.4666011      2021.9133      49.610807      47.994121      47.994121     -0.061047916    0.000805421    0.065465331    0.0037693759  -0.0036160024   0.0082346703   4131.8129      361515.34    
    456000   456            1.001053      -0.0018616379   16.631697      1.5015648      21.108219      18.133262     -4.4765219      3009.1616      49.62051       47.953635      47.953635     -0.02736824     0.045896685   -0.024113359   -0.0081248246  -0.00090578361 -0.040081689    4168.4436      361484.51    
    460000   460            1.0067286      0.066621664    16.632415      1.5100781      21.107091      18.142493     -4.4746764      2082.9992      49.630213      47.954208      47.954208      0.063502686    0.065613285    0.070749021   -0.07722884    -0.0014057972  -0.031473322    4204.7346      361424.36    
    464000   464            1.0023307      0.027611856    16.641249      1.5034814      21.106993      18.14473      -4.4657446      1873.9827      49.639915      47.975426      47.975426      0.047238993    0.02004809     0.015548484    0.001037789    0.031369978   -0.049253005    4241.2007      361379.55    
    468000   468            0.9961986      0.027286215    16.638729      1.4942833      21.111096      18.133012     -4.4723671      3095.4783      49.649618      47.952583      47.952583      0.046528985   -0.0010978825   0.036427541   -0.026026803   -0.0060524917   0.016428534    4277.1747      361293.31    
    472000   472            0.99681162     0.01750076     16.636941      1.4952028      21.106935      18.132144     -4.4699943      3204.6257      49.659321      47.952183      47.952183     -0.003651421    0.0066109978   0.049542702   -0.011907613    0.014080795   -0.0034731318   4313.3866      361227.85    
    476000   476            0.99785058    -0.026857458    16.639482      1.4967613      21.110116      18.136243     -4.4706347      2804.8878      49.669024      47.945489      47.945489     -0.014872655   -0.0061859328  -0.059513786   -0.0044741509   0.0083902695   0.015015657    4350.0804      361202.89    
    480000   480            0.99381269    -0.0066750874   16.643588      1.4907045      21.108854      18.134293     -4.4652658      3024.8386      49.678727      47.96659       47.96659       0.014039726   -0.0034407473  -0.03062424     0.0030797687  -0.0011590251   0.0022511001   4386.8375      361182.96    
    484000   484            0.99251552    -0.006628203    16.636744      1.4887588      21.102339      18.125503     -4.4655947      3946.1519      49.68843       47.962869      47.962869      0.013382807   -0.011421466   -0.02184595     0.037259855    0.030896681   -0.040282256    4423.9324      361190.32    
    488000   488            0.99815988    -0.013557769    16.629484      1.4972252      21.101168      18.12671      -4.471684       3842.1202      49.698133      47.93394       47.93394       0.032139495   -0.028840079   -0.043972723    0.029085529   -0.017639619   -0.025100197    4461.4454      361230.8     
    492000   492            0.99778825    -0.044274399    16.642108      1.4966678      21.107722      18.138776     -4.4656137      2625.7344      49.707836      47.966836      47.966836     -0.0051416994  -0.053081932   -0.074599565    0.012654295    0.032338746    0.027471356    4498.7528      361253.51    
    496000   496            0.99790336    -0.024994133    16.639722      1.4968404      21.107619      18.136562     -4.467897       2872.7607      49.717538      47.946372      47.946372     -0.0309809     -0.026080002   -0.017921497    0.023667793   -0.021719625   -0.041349879    4535.1854      361205.58    
    500000   500            0.99797211    -0.070528032    16.627204      1.4969436      21.101805      18.124147     -4.4746011      4164.964       49.727241      47.913368      47.913368     -0.105304      -0.033773064   -0.072507032   -0.0057872104  -0.02168355    -0.0022442056   4571.7587      361168.94    
    504000   504            0.99267907     0.01972413     16.645924      1.4890041      21.108776      18.134928     -4.4628517      3080.3595      49.736944      47.934428      47.934428      0.040841357    0.0012998699   0.017031164   -0.014062033   -0.051617668    0.018320626    4609.4462      361219.62    
    508000   508            0.99537489    -0.0043298374   16.644405      1.4930478      21.110258      18.137453     -4.465853       2841.5805      49.746647      47.946701      47.946701      0.013433139   -0.027489412    0.0010667607  -0.022417347   -0.017653595   -0.055821297    4646.8064      361243.46    
    512000   512            1.0017763     -0.0063972018   16.632112      1.5026499      21.104305      18.134762     -4.472193       3137.4795      49.75635       47.89663       47.89663      -0.055091664    0.018337852    0.017562207    0.021169375    0.036779666    0.042855346    4683.9542      361249.97    
    516000   516            0.99156867    -0.066622214    16.635963      1.4873385      21.104214      18.123302     -4.4682504      4332.0869      49.766053      47.915267      47.915267     -0.073383034   -0.11907458    -0.0074090304   0.026013854    0.0054577728  -0.022489483    4721.1967      361263.04    
    520000   520            0.99630727    -0.015501106    16.639927      1.4944463      21.106909      18.134373     -4.4669816      3217.5967      49.775756      47.930636      47.930636     -0.029397969   -0.012714901   -0.0043904472  -0.017469927    0.00068914856 -0.033929147    4758.8961      361310.04    
    524000   524            1.0011273     -0.0018914513   16.63804       1.5016762      21.109254      18.139717     -4.4712134      2690.0901      49.785459      47.88574       47.88574      -0.0039110469   0.031722647   -0.033485954    0.039336885   -0.036825017    0.0024301955   4795.345       361261.53    
    528000   528            0.99751964    -0.036587113    16.631841      1.4962649      21.104358      18.128106     -4.4725171      3899.922       49.795161      47.880572      47.880572     -0.045054889   -0.021328147   -0.043378304   -0.0052088694   0.017105075   -0.028939594    4832.3957      361258.19    
    532000   532            0.99837102     0.039789178    16.640992      1.4975419      21.110226      18.138534     -4.4692338      2851.5956      49.804864      47.884798      47.884798      0.03763688     0.049095486    0.032635168   -0.0080506713   0.010879511    0.048587734    4868.7036      361199.24    
    536000   536            1.0040125     -0.030656987    16.634689      1.506004       21.107089      18.140693     -4.4724005      2650.3297      49.814567      47.87225       47.87225      -0.052199106    0.04809798    -0.087869834    0.012398321    0.0023772508  -0.0021046739   4905.7258      361193.22    
    540000   540            0.99890237    -0.0029717339   16.636248      1.4983389      21.106386      18.134587     -4.4701373      3296.4432      49.82427       47.877558      47.877558     -0.027547452    0.011410275    0.0072219748  -0.00578681     0.05893499     0.035052119    4942.5928      361175.39    
    544000   544            0.9949082     -0.0064626162   16.628873      1.4923477      21.104392      18.121221     -4.475519       4686.1403      49.833973      47.877128      47.877128     -0.00049069619 -0.014785014   -0.0041121384   0.0049789832  -0.015752037   -0.011087059    4979.64        361170.36    
    548000   548            0.99788989     0.0030526938   16.634259      1.4968202      21.106521      18.131079     -4.4722621      3695.8772      49.843676      47.861732      47.861732     -0.01760068     0.028986412   -0.002227651   -0.021083692   -0.032621972   -0.019909959    5016.4889      361150.58    
    552000   552            0.99860155    -0.022190303    16.637175      1.4978877      21.110494      18.135062     -4.4733195      3307.8784      49.853379      47.855482      47.855482     -0.10801088     0.026162517    0.015277453    0.030173003    0.0032262611  -0.0018590229   5053.1323      361115.88    
    556000   556            0.99846678    -0.032976129    16.633078      1.4976856      21.105885      18.130763     -4.4728075      3768.476       49.863082      47.853593      47.853593     -0.053391522   -0.029779505   -0.015757359    0.031378885   -0.01395004     0.0044386431   5089.7386      361078.5     
    560000   560            1.0032016      0.020581687    16.636401      1.5047877      21.103531      18.141189     -4.4671306      2719.7091      49.872784      47.861033      47.861033      0.020230511    0.013880788    0.027633761   -0.010373703   -0.01741509    -0.00062534629  5126.2525      361034.64    
    564000   564            0.99963679     0.014575631    16.634549      1.4994406      21.106304      18.13399      -4.4717545      3477.8289      49.882487      47.852402      47.852402      0.0013785911   0.044480185   -0.0021318821  -0.021957738   -0.0064871201   0.067404609    5162.8215      360994.73    
    568000   568            1.0017012      0.0034792814   16.628538      1.5025371      21.106721      18.131075     -4.4781826      3796.5719      49.89219       47.806759      47.806759     -0.016641748    0.0026575276   0.024422065    0.0012186345  -0.04942185    -0.0024783065   5199.3353      360951.03    
    572000   572            0.99989869     0.013209385    16.635747      1.4998334      21.105299      18.13558      -4.4695523      3354.7835      49.901893      47.844837      47.844837     -0.0097548191   0.040609152    0.0087738213  -0.027723808    0.04722581    -0.0047123688   5236.1604      360928.91    
    576000   576            1.0044512      0.033381726    16.637988      1.5066621      21.105227      18.14465      -4.4672391      2445.5318      49.911596      47.838386      47.838386      0.031913262    0.06766495     0.00056696672 -0.007267006   -0.039082418   -0.0079712266   5273.1089      360915.01    
    580000   580            0.9980008      0.022086203    16.641132      1.4969866      21.110764      18.138118     -4.4696323      3135.0638      49.921299      47.842712      47.842712     -0.040308605    0.056055415    0.050511799    0.019768766    0.0390159     -0.010207766    5310.5414      360933.69    
    584000   584            1.0013777      0.018268011    16.635436      1.5020519      21.104742      18.137488     -4.469306       3219.844       49.931002      47.829805      47.829805     -0.0032138789   0.023969617    0.034048295   -0.015398774   -0.011159648    0.012819237    5347.6893      360932.4     
    588000   588            0.99676241    -0.063429193    16.632259      1.495129       21.109788      18.127388     -4.4775286      4274.9775      49.940705      47.801147      47.801147     -0.065324157   -0.062697138   -0.062266283   -0.048381508   -0.024397616   -0.014557166    5383.9624      360871.98    
    592000   592            0.99498753    -0.028343692    16.625918      1.4924667      21.103349      18.118385     -4.4774308      5217.2903      49.950407      47.806944      47.806944      0.010181297   -0.034186011   -0.061026363    0.011753786    0.0015368033   0.0085669602   5420.925       360857.79    
    596000   596            0.99980034    -0.020351293    16.633662      1.4996859      21.102698      18.133348     -4.4690359      3703.6516      49.96011       47.831514      47.831514     -0.0073531741  -0.025345901   -0.028354805    0.033364459   -0.017577877   -0.0008316171   5457.6782      360829.45    
    600000   600            1.0009031     -0.070425032    16.638735      1.50134        21.104881      18.140075     -4.4661455      3033.9499      49.969813      47.834073      47.834073     -0.11674683    -0.021105805   -0.073422463   -0.04036433     0.024332717   -0.0064291423   5494.0841      360778.19    
    604000   604            1.0006327     -0.015536596    16.634674      1.5009345      21.105317      18.135609     -4.4706423      3511.7625      49.979516      47.80425       47.80425      -0.063025394    0.082990454   -0.06657485     0.030266614   -0.0058801072  -0.0031002936   5530.4875      360726.96    
    608000   608            0.99531464     0.0045530142   16.633671      1.4929574      21.107951      18.126628     -4.4742801      4452.2042      49.989219      47.785567      47.785567     -0.052709864    0.030638419    0.035730487   -0.024968155    0.045054346   -0.01645944     5568.1467      360757.29    
    612000   612            1.0007196      0.01574005     16.637252      1.5010648      21.105595      18.138316     -4.4683438      3274.1234      49.998922      47.796171      47.796171      0.048342646    0.018202499   -0.019324995    0.051486616   -0.03297497    -0.018383858    5606.1574      360809.36    
    616000   616            1.0019963      0.0086269516   16.635384      1.5029798      21.103366      18.138364     -4.4679826      3289.5245      50.008625      47.7938        47.7938        0.0092832226   0.0093401312   0.0072575009  -0.0080649671   0.013800346   -0.015522918    5642.6208      360761.33    
    620000   620            0.99557676     0.040835287    16.636179      1.4933506      21.105957      18.12953      -4.4697775      4214.7256      50.018328      47.777358      47.777358      0.084528281    0.052478998   -0.014501419   -0.0080322222   0.005543702   -0.014910513    5679.1135      360715.3     
    624000   624            0.99751595    -0.0061645587   16.631282      1.4962593      21.108421      18.127541     -4.4771387      4438.7045      50.02803       47.761538      47.761538     -0.017090246    0.016455518   -0.017858948    0.00048847905 -0.0097354109  -0.040699045    5716.4563      360723.05    
    628000   628            1.0034813      0.010722493    16.63574       1.5052072      21.108422      18.140947     -4.4726824      3084.9392      50.037733      47.757945      47.757945     -0.074119612    0.06595778     0.040329311   -0.0024821914   0.01570522    -0.0073402775   5753.0797      360685.12    
    632000   632            1.0014544     -0.018318608    16.630855      1.5021669      21.103834      18.133022     -4.4729789      3917.0949      50.047436      47.767017      47.767017     -0.045416198   -0.048865613    0.039325988    0.047496943    0.0067395709  -0.068265086    5789.979       360664.39    
    636000   636            0.99508015    -0.042295927    16.637538      1.4926057      21.108609      18.130144     -4.4710707      4232.5402      50.057139      47.763633      47.763633     -0.011449674   -0.060091308   -0.055346801    0.024530065    0.016995649    0.012164326    5826.8005      360638.64    
    640000   640            0.99918207    -0.017162064    16.64182       1.4987585      21.107217      18.140579     -4.4653965      3183.1108      50.066842      47.778594      47.778594      0.0061672761  -0.034659313   -0.022994155   -0.011064239   -0.0028362268   0.049217716    5863.1156      360581.61    
    644000   644            0.9956097     -0.035669277    16.640944      1.4934         21.107289      18.134344     -4.4663443      3842.5721      50.076545      47.7704        47.7704       -0.065621878   -0.037596756   -0.003789197   -0.0080805348   0.012756309    0.039344477    5899.1268      360506.26    
    648000   648            0.99794748    -0.01075506     16.629326      1.4969066      21.104508      18.126233     -4.4751815      4693.2881      50.086248      47.740064      47.740064      0.049892921   -0.029770607   -0.052387493    0.013358161    0.016526328    0.027118181    5936.2472      360498.77    
    652000   652            1.0000003     -0.0037875966   16.632637      1.4999858      21.106711      18.132623     -4.4740733      4058.5877      50.095951      47.732227      47.732227      0.00038108734 -0.0097650151  -0.0019788619   0.019459671    0.034202825   -0.02837076     5973.583       360503.9     
    656000   656            0.99926172    -0.051099866    16.640028      1.498878       21.107018      18.138906     -4.4669893      3434.5213      50.105653      47.776812      47.776812     -0.049687261   -0.0070333966  -0.096578941    0.047774067   -0.00020004467  0.021786027    6010.1979      360465.29    
    660000   660            1.0015461      0.0067869739   16.650873      1.5023045      21.108102      18.153178     -4.4572291      1991.936       50.115356      47.78777       47.78777      -0.0088925505   0.018980726    0.010272746    0.031468202   -0.035846893    0.0052552935   6047.2434      360452.36    
    664000   664            1.0005779     -0.03621287     16.64147       1.5008523      21.107186      18.142322     -4.4657166      3124.7225      50.125059      47.760283      47.760283     -0.084693899   -0.018301593   -0.0056431168   0.00046660944  0.03102839    -0.0090002486   6083.3451      360383.23    
    668000   668            0.99891417     0.032584527    16.635999      1.4983566      21.106333      18.134356     -4.470334       3961.1491      50.134762      47.727229      47.727229      0.012294125    0.011416867    0.074042589    0.0056112206  -0.047759352   -0.052807314    6119.5792      360322.29    
    672000   672            0.99417609     0.020107231    16.635077      1.4912496      21.107085      18.126326     -4.4720085      4804.1981      50.144465      47.71635       47.71635      -0.039397572    0.022649481    0.077069785   -0.0024069094   0.04280838    -0.060630887    6155.8788      360265.48    
    676000   676            0.99980157    -0.038584234    16.635146      1.4996877      21.106843      18.134834     -4.471697       3952.4043      50.154168      47.726282      47.726282     -0.060081175   -0.010547594   -0.045123933    0.013528445    0.016633131   -0.028670887    6191.7852      360186.04    
    680000   680            1.0003184      0.013838087    16.641902      1.5004629      21.106518      18.142365     -4.4646155      3200.8212      50.163871      47.733369      47.733369     -0.031984445    0.061321369    0.012177338   -0.0086482478   0.00096435227 -0.0098329495   6227.9125      360119.88    
    684000   684            0.99758579     0.041105037    16.633869      1.4963641      21.104199      18.130233     -4.4703298      4464.1707      50.173574      47.706292      47.706292      0.0039270809   0.06030652     0.05908151     0.0097208577   0.013975578   -0.04328473     6263.7174      360035.55    
    688000   688            1.0003264      0.0063917244   16.631831      1.5004749      21.107157      18.132306     -4.4753256      4271.6541      50.183276      47.697596      47.697596     -0.027059192    0.046588479   -0.00035411313  0.021795433   -0.00028014281 -0.0038727681   6300.5086      360008.13    
    692000   692            0.99854127    -0.053358682    16.638793      1.4977973      21.110143      18.136591     -4.4713496      3852.7679      50.192979      47.710302      47.710302     -0.083702704   -0.036123172   -0.040250169    0.0039018741  -0.022697172    0.022619682    6337.1354      359971.27    
    696000   696            0.99934353    -0.036729184    16.623141      1.4990007      21.104514      18.122142     -4.481373       5353.3097      50.202682      47.668446      47.668446     -0.04395948    -0.03507769    -0.031150382   -0.0010211169   0.018302328   -0.0035832427   6374.2784      359963.56    
    700000   700            1.0008725     -0.0067762641   16.631518      1.5012941      21.107614      18.132812     -4.4760966      4279.8177      50.212385      47.666181      47.666181      0.019235623   -0.0040965909  -0.035467824    0.040413836   -0.05800098    -0.02108001     6409.5713      359851.65    
    704000   704            1.0047061      0.047996455    16.629606      1.5070444      21.105111      18.13665      -4.4755051      3906.1836      50.222088      47.667126      47.667126      0.033675472    0.054593803    0.055720091   -0.029280707   -0.0054858013  -0.011986305    6446.2369      359817.22    
    708000   708            0.99757228    -0.009215107    16.625729      1.4963438      21.105975      18.122073     -4.4802462      5420.1711      50.231791      47.659659      47.659659      0.025435051   -0.0052452326  -0.047835139    0.01014383    -0.018704529    0.012971601    6483.1358      359795.72    
    712000   712            0.99909204    -0.010045232    16.632258      1.4986234      21.109179      18.130881     -4.4769216      4537.7387      50.241494      47.659657      47.659657     -0.00075634721  0.01442301    -0.04380236    -0.0015240551  -0.0099995296   0.0080094815   6520.6499      359808       
    716000   716            1.0033399     -0.031199297    16.631606      1.5049952      21.104718      18.136601     -4.4731127      3971.2055      50.251197      47.660218      47.660218     -0.073435717   -0.0066338961  -0.01352828     0.021535528    0.0064685731   0.0044124351   6556.1924      359711.54    
    720000   720            1.0003499      0.053596395    16.627024      1.5005102      21.101889      18.127534     -4.4748659      4920.5129      50.260899      47.643683      47.643683      0.071480088    0.029809281    0.059499816    0.019301375    0.0056010234  -0.0064847997   6592.4769      359656.24    
    724000   724            0.99387779    -0.02631436     16.636948      1.4908021      21.108579      18.12775      -4.4716309      4918.6159      50.270602      47.651606      47.651606     -0.058989152   -0.020345612    0.00039168486 -0.021206127   -0.013335807   -0.024508767    6629.1849      359624.12    
    728000   728            1.0016054      0.022205071    16.637013      1.5023934      21.106166      18.139407     -4.4691529      3743.4378      50.280305      47.66902       47.66902       0.016650512    0.04477247     0.0051922314  -0.0044109072  -0.036155164   -0.0028363779   6665.8303      359588.58    
    732000   732            0.99840258    -0.0018374265   16.63422       1.4975893      21.108677      18.131809     -4.4744568      4541.9292      50.290008      47.662806      47.662806      0.0098792874  -0.023838414    0.0084468473  -0.050732344    0.0030546656  -0.00069326277  6702.2094      359538.74    
    736000   736            0.99530384    -0.023787049    16.636596      1.4929412      21.105299      18.129537     -4.4687031      4794.8061      50.299711      47.660387      47.660387     -0.012561943   -0.059778845    0.00097964005  0.0015668575  -0.023465274   -0.0031544764   6739.0657      359514.51    
    740000   740            0.99723296    -0.013872098    16.645319      1.4958349      21.107692      18.141154     -4.4623736      3624.2616      50.309414      47.671239      47.671239     -0.030043601    0.02872179    -0.040294483    0.00061670187 -0.022233933   -0.0035212904   6775.7186      359479.34    
    744000   744            0.99497548    -0.018855654    16.640094      1.4924487      21.106127      18.132543     -4.4660327      4526.5338      50.319117      47.661683      47.661683      0.05192879    -0.055338656   -0.053157097    5.2926104e-05  0.016037929   -0.0030270596   6813.2786      359492.02    
    748000   748            0.99650032    -0.028904396    16.638444      1.4947359      21.105791      18.13318      -4.467347       4481.083       50.32882       47.658717      47.658717     -0.023804136   -0.063699006    0.00078995565  0.023608401    0.041834494   -0.047402708    6850.0936      359465.07    
    752000   752            0.99686633    -0.009757793    16.635289      1.4952849      21.104537      18.130574     -4.4692486      4768.0754      50.338522      47.64814       47.64814      -0.0042465239  -0.039797448    0.014770593   -0.029639767    0.035105339    0.022933809    6887.4716      359467.4     
    756000   756            0.99879594    -0.057548626    16.638578      1.4981793      21.104858      18.136757     -4.4662805      4154.6943      50.348225      47.646326      47.646326     -0.011480877   -0.040969218   -0.12019578     0.019848674    0.027451596   -0.02433286     6923.6181      359405.38    
    760000   760            1.0021316      0.019212591    16.642995      1.5031828      21.104327      18.146178     -4.461332       3209.2124      50.357928      47.647834      47.647834     -0.017300345    0.030862461    0.044075659    0.027673501   -0.0093129745  -0.031717795    6959.5844      359334.33    
    764000   764            1.000242      -0.0093999522   16.636086      1.5003484      21.108005      18.136434     -4.4719196      4227.8455      50.367631      47.608519      47.608519      0.0089175582  -0.044627286    0.0075098713   0.031344494   -0.017945326    0.0015282845   6996.7923      359327.41    
    768000   768            0.99800254    -0.013155666    16.634572      1.4969892      21.107953      18.131562     -4.4733808      4747.3714      50.377334      47.612166      47.612166     -0.04687892     0.058441202   -0.051029278   -0.038157562   -0.00025352696 -0.042999788    7034.6471      359353.23    
    772000   772            1.0041196     -0.033961865    16.63787       1.5061648      21.10758       18.144035     -4.4697097      3488.9232      50.387037      47.61836       47.61836      -0.057822076   -0.028782582   -0.015280936   -0.014203042   -0.011833804    0.032449559    7071.5608      359330.56    
    776000   776            1.0076614      0.027209198    16.643846      1.5114774      21.110908      18.155324     -4.4670622      2351.8259      50.39674       47.601569      47.601569     -0.0013178595   0.076483162    0.0064622916  -0.0094753797  -0.023533473   -0.0053699316   7107.8261      359274.96    
    780000   780            1.0043437      0.022787736    16.633288      1.5065008      21.103271      18.139789     -4.469983       3963.9988      50.406443      47.586959      47.586959      0.017727198    0.032355489    0.018280521   -0.013464822   -0.055801991    0.028128224    7145.1295      359271.77    
    784000   784            0.99890217     0.077523364    16.635459      1.4983386      21.107335      18.133798     -4.471876       4598.2906      50.416146      47.581001      47.581001      0.016534736    0.09849437     0.11754099     0.052070709    0.045754923    0.0085582259   7181.4267      359217.9     
    788000   788            1.0039522      0.014233467    16.637222      1.5059136      21.108143      18.143136     -4.4709212      3660.9601      50.425848      47.595162      47.595162      0.0010046665   0.021081438    0.020614297   -0.040132024   -0.020559642   -0.011138413    7218.5824      359206.92    
    792000   792            1.0004701     -0.025551499    16.642206      1.5006906      21.10477       18.142897     -4.4625639      3705.6008      50.435551      47.631914      47.631914     -0.087957749   -0.020871398    0.032174652   -0.016851891   -0.023151903    0.033695175    7255.5437      359186.06    
    796000   796            0.99380265    -0.03016439     16.636228      1.4906894      21.110354      18.126918     -4.4741255      5363.7404      50.445254      47.570649      47.570649     -0.028995417   -0.029826684   -0.031671068    0.02968272    -0.0058121891  -0.038472228    7292.5625      359167.87    
    800000   800            1.0000388      0.056161862    16.635337      1.5000436      21.107823      18.135381     -4.4724865      4516.294       50.454957      47.558127      47.558127      0.046762968    0.065521025    0.056201592    0.030278511   -0.0047510676  -0.0045316376   7327.6306      359053.9     
    804000   804            1.0035284      0.033109317    16.639174      1.505278       21.106304      18.144452     -4.4671301      3606.866       50.46466       47.55837       47.55837       0.037158752    0.021545191    0.040624009   -5.9617428e-05 -0.0091631145   0.014729321    7364.1291      359010.45    
    808000   808            0.99866754     0.061424356    16.629664      1.4979867      21.10517       18.127651     -4.4755061      5348.9089      50.474363      47.525597      47.525597      0.062466604    0.045408       0.076398463   -0.0012376163   0.012636499    0.024961819    7400.816       358976.21    
    812000   812            1.0018471     -0.025366866    16.627724      1.502756       21.1071        18.13048      -4.4793761      5078.8903      50.484066      47.539474      47.539474     -0.04033274    -0.007792347   -0.027975513   -0.042121691    0.009079919   -0.015436294    7437.1704      358925.9     
    816000   816            1.0016543      0.011933096    16.639964      1.5024667      21.108063      18.14243      -4.4680998      3874.0549      50.493769      47.565071      47.565071      0.015688512    0.00052339065  0.019587385   -0.01684759    -0.043447157   -0.015112277    7473.9069      358894.08    
    820000   820            1.0015924     -0.032405814    16.644995      1.502374       21.104796      18.147369     -4.4598006      3387.7034      50.503471      47.596662      47.596662     -0.038949714   -0.012737464   -0.045530263   -0.015948452   -0.015290371   -0.081341065    7510.3212      358846.81    
    824000   824            1.0000597     -0.026627791    16.639575      1.5000749      21.108813      18.139649     -4.4692389      4198.8827      50.513174      47.55932       47.55932      -0.049146519   -0.030924554    0.00018770127 -0.0050745102  -0.035719611    0.037021839    7545.2341      358728.27    
    828000   828            1.0035247     -0.049243087    16.629789      1.5052724      21.105088      18.135062     -4.4752987      4688.8464      50.522877      47.543045      47.543045     -0.099234482    0.0099378369  -0.058432617   -0.0071575332  -0.011486964    0.0026994926   7581.6654      358682.36    
    832000   832            0.99181954    -0.0018878422   16.637124      1.4877148      21.109251      18.124838     -4.4721274      5756.9325      50.53258       47.534984      47.534984      0.012135521   -0.025224452    0.0074254049  -0.006854263    0.0075750944   0.041093731    7617.1321      358591.14    
    836000   836            0.99970713    -0.015959358    16.641562      1.4995461      21.109911      18.141108     -4.4683491      4109.0538      50.542283      47.551535      47.551535     -0.048357386   -0.010200394    0.010679704   -0.0044178359  -0.034015181   -0.013900707    7653.0265      358520.49    
    840000   840            0.99818007    -0.039041598    16.645095      1.4972555      21.105798      18.142351     -4.4607028      4001.7585      50.551986      47.568924      47.568924     -0.034310081   -0.060546459   -0.022268254    0.010722773   -0.0020365483  -0.023622462    7689.9131      358496.42    
    844000   844            0.99773287    -0.00054135102  16.635541      1.4965847      21.108078      18.132126     -4.4725371      5069.6361      50.561689      47.532586      47.532586      0.031751386   -0.076144028    0.042768589   -0.0032446464   0.0039933091   0.01928519     7726.042       358437.09    
    848000   848            0.99755668    -0.049717912    16.63403       1.4963204      21.106436      18.130351     -4.4724058      5271.4312      50.571392      47.523605      47.523605     -0.07629523    -0.06279106    -0.010067445    0.01916894    -0.051208993    0.034241421    7763.0299      358417.62    
    852000   852            0.99994432    -0.020698162    16.63325       1.4999018      21.105836      18.133152     -4.4725859      5004.304       50.581094      47.52234       47.52234      -0.047292461   -0.0049083604  -0.009893665   -0.030826097   -0.028363487   -0.037051648    7799.3675      358368.12    
    856000   856            1.0022766     -0.035543363    16.641633      1.5034003      21.109512      18.145033     -4.4678795      3806.8127      50.590797      47.519976      47.519976     -0.048393562   -0.013457933   -0.044778593    0.016831451    0.018263024   -0.0028097201   7835.4134      358305.4     
    860000   860            1.001232       0.072007231    16.642419      1.5018334      21.106363      18.144253     -4.4639435      3906.6942      50.6005        47.511166      47.511166      0.11204045     0.065229636    0.038751604   -0.0055913     -0.0014271529  -0.022549382    7871.8407      358260.29    
    864000   864            0.99834523     0.029718129    16.636843      1.4975032      21.108317      18.134346     -4.4714738      4941.794       50.610203      47.504924      47.504924      0.010099596    0.037177914    0.041876877    0.014304927   -0.033488783    0.0044180155   7906.594       358139.42    
    868000   868            0.99782099     0.0030098395   16.632249      1.4967169      21.105465      18.128966     -4.4732155      5512.9489      50.619906      47.500652      47.500652      0.030404404    0.023487769   -0.044862654    0.015029331   -0.020892901    0.034273729    7941.7788      358038.81    
    872000   872            1.0020703     -0.096635441    16.632118      1.5030908      21.10879       18.135209     -4.4766713      4892.9254      50.629609      47.494603      47.494603     -0.14075814    -0.068913872   -0.080234308   -0.047615868   -0.01121898    -0.039983039    7976.9432      357937.88    
    876000   876            1.0019417      0.01978297     16.637386      1.5028979      21.10772       18.140284     -4.4703341      4392.0837      50.639312      47.480432      47.480432      0.013999371    0.020178654    0.025170886    0.0057648814  -0.015809942    0.022849618    8013.1015      357881.94    
    880000   880            1.0009868      0.044047725    16.628011      1.5014656      21.108907      18.129476     -4.4808964      5519.6345      50.649015      47.430516      47.430516     -0.014627545    0.097479639    0.04929108     0.012160567    0.0093010204   0.020628504    8048.6062      357797.13    
    884000   884            0.99676739     0.066846442    16.635442      1.4951365      21.107734      18.130579     -4.4722911      5426.9028      50.658717      47.453392      47.453392      0.045380428    0.07085443     0.084304468   -0.064212615   -0.018041434    0.037704715    8084.3939      357725.29    
    888000   888            0.99925284    -0.002135291    16.639075      1.4988646      21.109601      18.137939     -4.4705268      4692.0002      50.66842       47.468164      47.468164     -0.051602392    0.020378354    0.024818164    0.010039566   -0.0019331772   0.0310222      8121.4831      357711.09    
    892000   892            0.99817317    -0.016287153    16.631818      1.4972452      21.103394      18.129063     -4.471576       5621.5727      50.678123      47.480631      47.480631     -0.05024708     0.050176807   -0.048791187    0.0059295353   0.037619385    0.016053559    8157.8391      357664.54    
    896000   896            0.99608708    -0.047260965    16.634766      1.494116       21.107025      18.128882     -4.4722589      5660.1418      50.687826      47.464484      47.464484     -0.096466184   -0.020604699   -0.024712011    0.037435714   -0.012236708    0.0036167687   8192.6607      357551.12    
[...]
  39768000   39768          1.0038353     -0.12852909     16.655155      1.5057383      21.111263      18.160893     -4.4561078      124679.51      144.98038      28.116783      28.116783     -0.3931267      0.02685759    -0.019318154    0.02000529     0.0048761005   0.0081973088   346323.29      2020.3933    
  39772000   39772          1.0028262     -0.12906715     16.660216      1.5042247      21.112769      18.16444      -4.4525534      124325.72      144.99008      28.119784      28.119784     -0.41218474    -0.0079349857   0.03291826     0.032227689   -0.040484407    0.055964418    346359.47      1985.5667    
  39776000   39776          0.99752708    -0.15270021     16.651368      1.496276       21.108183      18.147644     -4.4568154      126056.86      144.99978      28.112714      28.112714     -0.46088932    -0.015910331    0.018699015    0.039959511    0.023561607    0.045982719    346395.69      1950.74      
  39780000   39780          0.99893892    -0.18649768     16.643787      1.4983938      21.109821      18.14218      -4.4660343      126626.38      145.00949      28.089705      28.089705     -0.42779226    -0.05209651    -0.079604253   -0.020908582    0.0027083824   0.023082098    346432         1915.9135    
  39784000   39784          0.99922947    -0.15522427     16.64595       1.4988296      21.105831      18.144779     -4.4598819      126369.71      145.01919      28.094627      28.094627     -0.38060755    -0.044296729   -0.040768535   -0.0064105214  -0.02682125    -0.030247453    346467.92      1881.0846    
  39788000   39788          1.0035105     -0.079881551    16.646381      1.5052511      21.108601      18.151632     -4.4622198      125677.1       145.02889      28.092579      28.092579     -0.28182106    -0.036601597    0.078778001   -0.04356872     0.0070255216  -0.016206919    346504.83      1846.2608    
  39792000   39792          1.0000842     -0.12813734     16.641946      1.5001117      21.109332      18.142058     -4.4673853      126668.17      145.0386       28.082699      28.082699     -0.32504372    -0.028652083   -0.030716223   -0.013105049   -0.027965719   -0.027541481    346541.24      1811.4339    
  39796000   39796          0.99737185    -0.12457314     16.645496      1.4960432      21.108309      18.141539     -4.462813       126731.51      145.0483       28.080854      28.080854     -0.36031311    -0.042060931    0.028654614   -0.043015721    0.028050558    0.019395216    346577.53      1776.6061    
  39800000   39800          0.9978231     -0.088449076    16.64865       1.49672        21.10854       18.14537      -4.4598898      126348.56      145.058        28.096862      28.096862     -0.32689835     0.048768807    0.01278231    -0.0099368823  -0.00032530799 -0.018363872    346613.58      1741.7768    
  39804000   39804          1.001274      -0.14641823     16.654321      1.5018964      21.109542      18.156217     -4.4552214      125246.66      145.0677       28.108472      28.108472     -0.39906707     0.0091200844  -0.049307707    0.024042568    0.03148856    -0.014344129    346649.82      1706.9482    
  39808000   39808          0.9975229     -0.17650134     16.655463      1.4962697      21.109461      18.151732     -4.4539986      125716.09      145.07741      28.11262       28.11262      -0.4598936     -0.017480634   -0.052129805   -0.031584056   -0.0062381062   0.0084217508   346686.08      1672.1194    
  39812000   39812          0.99966392    -0.11955587     16.639772      1.4994812      21.109168      18.139254     -4.4693957      127004.5       145.08711      28.083876      28.083876     -0.3316421      0.020607281   -0.047632779    0.022014151   -0.0068968435  -0.018680896    346721.93      1637.2883    
  39816000   39816          0.99864592    -0.15572839     16.650923      1.4979543      21.103746      18.148877     -4.4528228      126027.93      145.09681      28.101094      28.101094     -0.42514654    -0.034554097   -0.0074845326   0.0055749608  -0.017718752   -0.0010682922   346758.03      1602.4582    
  39820000   39820          1.0002486     -0.15552317     16.651352      1.5003583      21.109533      18.15171      -4.4581809      125747.73      145.10652      28.109872      28.109872     -0.39716972    -0.0058613965  -0.063538393   -0.013460507   -0.031159449    0.018791642    346794.1       1567.6278    
  39824000   39824          1.0015157     -0.16297625     16.640339      1.5022589      21.104291      18.142598     -4.4639525      126691.2       145.11622      28.091728      28.091728     -0.43277763    -0.017102037   -0.039049078    0.0061951779   0.0053283569  -0.0071417066   346830.02      1532.7964    
  39828000   39828          0.997351      -0.095537813    16.649625      1.4960119      21.108893      18.145637     -4.459268       126389.65      145.12592      28.086187      28.086187     -0.35257815     0.049389037    0.01657568     0.023361897   -0.024811009    0.02294201     346866.18      1497.9658    
  39832000   39832          0.99858324    -0.11872064     16.651187      1.4978603      21.109329      18.149047     -4.4581416      126049.83      145.13562      28.09576       28.09576      -0.38470935     0.073554758   -0.045007319    0.025113393    0.011192542   -0.02136675     346902.81      1463.137     
  39836000   39836          1.0012053     -0.10664623     16.64334       1.5017934      21.105427      18.145133     -4.4620876      126460.73      145.14533      28.085735      28.085735     -0.34806035     0.048455563   -0.020333897   -0.00017027122  0.010497102    0.019221597    346938.87      1428.3054    
  39840000   39840          0.99794822    -0.14084872     16.646882      1.4969077      21.111545      18.143789     -4.4646627      126608.26      145.15503      28.078053      28.078053     -0.39221747    -0.02372456    -0.0066041111  -0.049783666   -0.01210769     0.019574571    346975.21      1393.4748    
  39844000   39844          0.99725605    -0.10683772     16.643316      1.4958695      21.108854      18.139185     -4.4655379      127090.01      145.16473      28.066499      28.066499     -0.32631297     0.0032532111   0.0025465826  -0.030438253   -0.0051563177  -0.0019668399   347011.39      1358.6431    
  39848000   39848          0.99823512    -0.14950402     16.648229      1.4973381      21.108149      18.145567     -4.4599204      126445.67      145.17444      28.089992      28.089992     -0.37108238    -0.0097695038  -0.067660178   -0.0087941018   0.0022267352  -0.010662169    347047.74      1323.8119    
  39852000   39852          0.99925829    -0.13108167     16.653262      1.4988728      21.110068      18.152135     -4.4568056      125782.58      145.18414      28.090283      28.090283     -0.35737283    -0.026365594   -0.0095065803  -0.01043769     0.03995833     0.0085164497   347084.3       1288.9812    
  39856000   39856          0.99652045    -0.11992332     16.652859      1.4947661      21.10758       18.147625     -4.4547218      126254.6       145.19384      28.082658      28.082658     -0.41965966     0.021237662    0.038652031   -0.006825232   -0.0097947831  -0.036307004    347120.06      1254.1472    
  39860000   39860          1.0036809     -0.093428044    16.643832      1.5055067      21.108566      18.149338     -4.4647339      126088.52      145.20354      28.071383      28.071383     -0.31585071     0.020407979    0.015158595   -0.038602573    0.0050574524  -0.017953112    347156.54      1219.3155    
  39864000   39864          0.99696278    -0.083018494    16.641207      1.4954296      21.108476      18.136637     -4.4672689      127400.35      145.21325      28.059527      28.059527     -0.3402745      0.044055839    0.047163177    0.016388454   -0.011794313    0.037869825    347193.04      1184.4836    
  39868000   39868          1.0023823     -0.10060373     16.63624       1.5035587      21.106035      18.139799     -4.4697952      127085.72      145.22295      28.054284      28.054284     -0.2878153      0.023440478   -0.037436364    0.02557815    -0.018154052   -0.025386252    347229.55      1149.6514    
  39872000   39872          0.99993282    -0.10246761     16.648696      1.4998846      21.110421      18.14858      -4.4617258      126195.56      145.23265      28.065504      28.065504     -0.34620401     0.039168328   -0.00036715911 -0.021996472    0.0075089472  -0.003053349    347266.13      1114.819     
  39876000   39876          1.0064263     -0.07567738     16.649461      1.5096247      21.1069        18.159086     -4.4574386      125128.62      145.24236      28.061726      28.061726     -0.33563739     0.062936776    0.045668469    0.029955913    0.017137482   -0.031284912    347302.46      1079.9856    
  39880000   39880          0.99664323    -0.061494779    16.657491      1.4949503      21.11097       18.152441     -4.453479       125819.69      145.25206      28.082956      28.082956     -0.25604253     0.033759879    0.037798312   -0.0030938662   0.022881812   -8.7352056e-05  347338.6       1045.1513    
  39884000   39884          1.0008922     -0.11465314     16.643931      1.5013237      21.106772      18.145255     -4.4628413      126565.67      145.26176      28.06544       28.06544      -0.40589515     0.041593693    0.020342044   -0.0060355215  -0.0027134925  -0.016362876    347374.31      1010.3154    
  39888000   39888          0.9984612     -0.14786946     16.640946      1.4976772      21.104917      18.138623     -4.463971       127255.11      145.27146      28.07379       28.07379      -0.41848351     0.0015272994  -0.026652157    0.050938406   -0.0046459883  -0.019864851    347410.43      975.48055    
  39892000   39892          1.0019395     -0.10971357     16.646564      1.5028946      21.105524      18.149459     -4.4589595      126154.35      145.28117      28.077531      28.077531     -0.40132955     0.02070658     0.051482253   -0.00042419664  0.0072039506   0.018363007    347446.87      940.64629    
  39896000   39896          1.0017012     -0.083670909    16.648222      1.5025371      21.105957      18.150759     -4.4577354      126030.86      145.29087      28.077371      28.077371     -0.30689369     0.020149131    0.035731827   -0.024994652   -0.041690771   -0.024769082    347483.04      905.81102    
  39900000   39900          0.99553696    -0.11541734     16.644504      1.4932909      21.109933      18.137795     -4.4654289      127369.56      145.30057      28.057067      28.057067     -0.40176333     0.037868825    0.017642478   -0.036487365   -0.0093969055   0.028946422    347519.34      870.9758     
  39904000   39904          0.99604169    -0.11619437     16.646196      1.494048       21.109721      18.140244     -4.4635248      127128.12      145.31028      28.056868      28.056868     -0.3692332     -0.029247325    0.049897403   -0.016613479   -0.011805951   -0.03194858     347555.67      836.14035    
  39908000   39908          1.0005832     -0.13299986     16.646129      1.5008601      21.108988      18.146989     -4.4628595      126446.74      145.31998      28.062235      28.062235     -0.43619918     0.035356709    0.0018428859   0.031409111   -0.015222924    0.011471978    347591.68      801.30387    
  39912000   39912          0.99809685    -0.16437484     16.653446      1.4971307      21.110067      18.150576     -4.4566208      126088.63      145.32968      28.072413      28.072413     -0.44069186    -0.037804141   -0.014628505    0.015145344    0.016401277    0.022313112    347627.69      766.46714    
  39916000   39916          1.0001039     -0.13314814     16.649869      1.5001412      21.105809      18.15001      -4.4559399      126156.53      145.33938      28.07152       28.07152      -0.38787431    -0.023073254    0.011503127   -0.02787142    -0.054059656    0.0086859513   347663.34      731.62943    
  39920000   39920          0.99801306    -0.12064661     16.643744      1.497005       21.106276      18.140749     -4.4625322      127115.16      145.34909      28.066713      28.066713     -0.34249095    -0.0058984296  -0.013550437    0.039624064    0.018622868   -0.0093377125   347699.64      696.79286    
  39924000   39924          0.99958205    -0.10316607     16.638928      1.4993585      21.103487      18.138286     -4.4645596      127377.04      145.35879      28.052355      28.052355     -0.32392252     0.009862731    0.0045615805   9.2030072e-05  0.036131411   -0.045280341    347735.64      661.95542    
  39928000   39928          1.0023168     -0.088310755    16.650746      1.5034605      21.111248      18.154207     -4.4605013      125755.08      145.36849      28.057759      28.057759     -0.34837715     0.052971468    0.030473421   -0.0065972092   0.0054686607  -0.00093595857  347771.82      627.11809    
  39932000   39932          1.0018842     -0.12701504     16.644825      1.5028117      21.107842      18.147636     -4.4630176      126438.29      145.3782       28.051189      28.051189     -0.35949767    -0.00072532931 -0.020822127   -0.025782765   -0.00071680909 -0.036848392    347808.05      592.28056    
  39936000   39936          0.99851002    -0.094549775    16.639223      1.4977504      21.102626      18.136974     -4.4634022      127540.42      145.3879       28.04371       28.04371      -0.35684633     0.063210326    0.0099866758  -0.023552314    0.0011573183   0.021958357    347844.2       557.44262    
  39940000   39940          1.0023242     -0.095989502    16.64467       1.5034716      21.108047      18.148142     -4.4633767      126405.66      145.3976       28.047136      28.047136     -0.35327351     0.033719482    0.031585516   -0.00079142259  0.017118582   -0.0034278508   347880.71      522.60497    
  39944000   39944          1.0062887     -0.11995978     16.643389      1.5094183      21.107907      18.152807     -4.4645183      125937.17      145.4073       28.056434      28.056434     -0.35191512    -1.1519211e-06 -0.0079630794  -0.024464898    0.064460349   -0.025965499    347916.49      487.76596    
  39948000   39948          0.99696293    -0.13702248     16.641936      1.4954298      21.10669       18.137365     -4.4647542      127529.63      145.41701      28.049395      28.049395     -0.37209736    -0.031187037   -0.0077830386   0.0034728378  -0.021333278    0.025683671    347952.69      452.9273     
  39952000   39952          0.99931604    -0.11371768     16.646042      1.4989594      21.107678      18.145002     -4.4616355      126756.81      145.42671      28.042759      28.042759     -0.33300195    -0.0048294301  -0.0033216601  -0.011406329    0.05725616     0.016742915    347989.21      418.08876    
  39956000   39956          0.99930211    -0.15491763     16.660626      1.4989385      21.112019      18.159565     -4.451393       125273.82      145.43641      28.073991      28.073991     -0.39100713    -0.028241637   -0.045504124   -0.034591503   -0.019357247    0.035285815    348025.37      383.24948    
  39960000   39960          1.0044898     -0.10669407     16.652231      1.50672        21.108531      18.158951     -4.4563001      125346.54      145.44612      28.071456      28.071456     -0.30009203    -0.011956866   -0.0080333139   0.0089717281   0.034384334   -0.039087575    348061.53      348.40994    
  39964000   39964          1.0000392     -0.094919493    16.645003      1.5000441      21.108787      18.145047     -4.4637836      126781.26      145.45582      28.044521      28.044521     -0.33342704     0.013504211    0.035164353   -0.016715181    0.013727525    0.03155499     348097.4       313.56987    
  39968000   39968          0.99834099    -0.14629892     16.644015      1.4974969      21.10883       18.141512     -4.4648145      127153.51      145.46552      28.055107      28.055107     -0.39022696    -0.022339137   -0.026330652    0.0077007447  -0.029305122   -0.017202514    348133.76      278.72999    
  39972000   39972          1.0004958     -0.14702049     16.648507      1.500729       21.106987      18.149236     -4.4584794      126371.45      145.47523      28.063856      28.063856     -0.36848068    -0.030875753   -0.041705038   -0.0038657166  -0.0167936     -0.0023104729   348170.46      243.89005    
  39976000   39976          0.99485799    -0.213048       16.648428      1.4922724      21.111153      18.140701     -4.4627246      127256.45      145.48493      28.05995       28.05995      -0.47335262    -0.029840764   -0.13595061    -0.028012943   -0.0046697966   0.0045057954   348206.42      209.04928    
  39980000   39980          0.99575124    -0.13100749     16.643828      1.4936123      21.107821      18.13744      -4.4639938      127600.21      145.49463      28.037409      28.037409     -0.39546817     0.0028030672  -0.00035736307 -0.033384951    0.019658743    0.011103782    348242.5       174.20835    
  39984000   39984          1.0017794     -0.12568191     16.6467        1.5026544      21.108345      18.149355     -4.4616442      126388.74      145.50433      28.043673      28.043673     -0.35405374    -0.026996541    0.0040045475  -0.034012685   -0.012554819    0.0033351348   348278.35      139.36709    
  39988000   39988          0.99493416    -0.15748122     16.651266      1.4923867      21.110442      18.143652     -4.4591765      126983.12      145.51404      28.055188      28.055188     -0.3814783     -0.062303071   -0.028662296    0.035479685   -0.026887981   -0.022552973    348314.51      104.52571    
  39992000   39992          0.99366418    -0.11502174     16.642916      1.4904817      21.103974      18.133397     -4.4610583      128043.57      145.52374      28.053355      28.053355     -0.38957417     0.018839848    0.025669089   -0.0075067636   0.008167941    0.041987772    348350.82      69.6841      
  39996000   39996          1.0025561     -0.12896668     16.64172       1.5038195      21.104782      18.145539     -4.4630625      126808.74      145.53344      28.043679      28.043679     -0.42757071     0.021967916    0.018702772    0.00084864687  0.035240329    0.0088768973   348387.09      34.842194    
  40000000   40000          1.00142       -0.13774112     16.647827      1.5021154      21.105776      18.149942     -4.457949       126367.51      145.54315      28.049737      28.049737     -0.3730968     -0.040563629    0.0004370549  -0.02299615    -0.033412297   -0.0036174763   348423.52      0            
Loop time of 348424 on 18 procs for 40000000 steps with 102500 atoms

Performance: 9918.963 tau/day, 114.803 timesteps/s
98.1% CPU use with 18 MPI tasks x 1 OpenMP threads

MPI task timing breakdown:
Section |  min time  |  avg time  |  max time  |%varavg| %total
---------------------------------------------------------------
Pair    | 2.2335e+05 | 2.2848e+05 | 2.3305e+05 | 573.2 | 65.58
Bond    | 12403      | 12866      | 13447      | 225.2 |  3.69
Neigh   | 12766      | 12786      | 12819      |  14.4 |  3.67
Comm    | 35881      | 39691      | 46348      |1693.7 | 11.39
Output  | 929.42     | 929.46     | 929.49     |   0.0 |  0.27
Modify  | 43473      | 51226      | 56588      |2430.7 | 14.70
Other   |            | 2443       |            |       |  0.70

Nlocal:        5694.44 ave        5739 max        5652 min
Histogram: 2 2 1 1 3 2 2 3 0 2
Nghost:         9987.5 ave       10047 max        9936 min
Histogram: 2 1 2 3 2 2 3 1 0 2
Neighs:         224494 ave      228343 max      220432 min
Histogram: 2 3 0 0 4 1 2 2 3 1

Total # of neighbors = 4040888
Ave neighs/atom = 39.423298
Ave special neighs/atom = 6.6256976
Neighbor list builds = 1331963
Dangerous builds = 0

# GENERATION RESTART
write_restart ./out.deform.restart
System init for write_restart ...
Generated 0 of 36 mixed pair_coeff terms from geometric mixing rule
write_data    ./out.deform.data pair ij
System init for write_data ...
Generated 0 of 36 mixed pair_coeff terms from geometric mixing rule
Total wall time: 96:47:04
