LAMMPS (15 Sep 2022)
OMP_NUM_THREADS environment is not set. Defaulting to 1 thread. (src/comm.cpp:98)
  using 1 OpenMP thread(s) per MPI task
# LAMMPS Script for deform
# Generated 12/17/2022

# INIT PARAMS & READ CONF
include   "/work_bgfs/h/harshad/simulation_9/neat_polymer/config_4/system.init"
# UNITS
units		lj
dimension	3
atom_style	bond

# INPUT FILE
pair_style	lj/cut 2.5
bond_style	fene
read_data /work_bgfs/h/harshad/simulation_9/neat_polymer/config_4/quiescent/thermal_replicates/5.npt.data
Reading data file ...
  orthogonal box = (-24.254629 -24.254629 -24.254629) to (24.254629 24.254629 24.254629)
  2 by 3 by 3 MPI processor grid
  reading atoms ...
  102500 atoms
  reading velocities ...
  102500 velocities
  scanning bonds ...
  2 = max bonds/atom
  reading bonds ...
  104500 bonds
Finding 1-2 1-3 1-4 neighbors ...
  special bond factors lj:    0        0        0       
  special bond factors coul:  0        0        0       
     4 = max # of 1-2 neighbors
     4 = max # of 1-3 neighbors
     8 = max # of 1-4 neighbors
    12 = max # of special neighbors
  special bonds CPU = 0.004 seconds
  read_data CPU = 0.881 seconds
include   "/work_bgfs/h/harshad/simulation_9/neat_polymer/config_4/system.settings"
# ATOM TYPE
mass  1  1.0 #backbone
mass  2  1.0 #endmer
mass  3  1.0 #crosslinker
mass  4  1.0 #outer shell
mass  5  1.0 #inner shell 2
mass  6  1.0 #inner-most shell
mass  7  1.0 #center bead
mass  8  1.0 #endmer post crosslinking
mass  9  1.0 #crosslinker post crosslinking

# BOND
bond_coeff * 30.0 1.50 1.0 1.0
special_bonds lj 0.0 1.0 1.0
Finding 1-2 1-3 1-4 neighbors ...
  special bond factors lj:    0        1        1       
  special bond factors coul:  0        0        0       
     4 = max # of 1-2 neighbors
     4 = max # of 1-3 neighbors
     8 = max # of 1-4 neighbors
    12 = max # of special neighbors
  special bonds CPU = 0.003 seconds

# PAIR
pair_coeff  1*9 1*9 1.0 1.0 2.5

pair_modify  shift yes
neigh_modify delay 1 check yes

# MAKE GROUPS
group polymer type 1 2 3 8 9
102500 atoms in group polymer
#group ins     type 1
#group strand  type 1 2 8
#group ends    type 2 8
#group xlinks  type 3 9
#group filler  type 4 5 6 7

# INPUTS FROM SBATCH
variable Temp          equal 1.0
variable gamma_total   equal 2.0
variable gamma_rate    equal 0.00005
variable dt            equal 0.001
variable Nfreq         equal 4000
variable Nrepeat_2     equal 100
variable Nevery_1      equal 1
variable Nrepeat_1     equal 1

variable Run           equal ${gamma_total}/${gamma_rate}/${dt}
variable Run           equal 2/${gamma_rate}/${dt}
variable Run           equal 2/5e-05/${dt}
variable Run           equal 2/5e-05/0.001

# RUN OPTIONS
run_style verlet
timestep  ${dt}
timestep  0.001

# RESTART
restart  ${Nfreq} cycle.1.restart cycle.2.restart
restart  4000 cycle.1.restart cycle.2.restart

## SAVE RESTARTS EVERY 10% EXTENSION
#variable RestFreq      equal 0.1/${gamma_rate}/${dt}
#restart  ${RestFreq} deform.*.restart
#
# COMPUTE ke/atom, pe/atom, pxx/atom, position and time-avg
compute     ke_atm          all     ke/atom
compute     p_atm           all     stress/atom NULL
compute     pe_atm          all     pe/atom
compute     ebond_atm       all     pe/atom bond
compute     posit_atm       all     property/atom x y z
fix         avg_ke_atm_1    all     ave/atom ${Nevery_1} ${Nrepeat_1} ${Nfreq} c_ke_atm
fix         avg_ke_atm_1    all     ave/atom 1 ${Nrepeat_1} ${Nfreq} c_ke_atm
fix         avg_ke_atm_1    all     ave/atom 1 1 ${Nfreq} c_ke_atm
fix         avg_ke_atm_1    all     ave/atom 1 1 4000 c_ke_atm
fix         avg_pxx_atm_1   all     ave/atom ${Nevery_1} ${Nrepeat_1} ${Nfreq} c_p_atm[*]
fix         avg_pxx_atm_1   all     ave/atom 1 ${Nrepeat_1} ${Nfreq} c_p_atm[*]
fix         avg_pxx_atm_1   all     ave/atom 1 1 ${Nfreq} c_p_atm[*]
fix         avg_pxx_atm_1   all     ave/atom 1 1 4000 c_p_atm[*]
fix         avg_pe_atm_1    all     ave/atom ${Nevery_1} ${Nrepeat_1} ${Nfreq} c_pe_atm
fix         avg_pe_atm_1    all     ave/atom 1 ${Nrepeat_1} ${Nfreq} c_pe_atm
fix         avg_pe_atm_1    all     ave/atom 1 1 ${Nfreq} c_pe_atm
fix         avg_pe_atm_1    all     ave/atom 1 1 4000 c_pe_atm
#fix         avg_posit_atm_1 all     ave/atom ${Nevery_1} ${Nrepeat_1} ${Nfreq} c_posit_atm[1] c_posit_atm[2] c_posit_atm[3]
dump        dump_1 all custom ${Nfreq} ${out_dir}traj.${Nevery_1}_${Nrepeat_1}_${Nfreq}.xyz mol type x y z f_avg_ke_atm_1 f_avg_pe_atm_1 f_avg_pxx_atm_1[*]
dump        dump_1 all custom 4000 ${out_dir}traj.${Nevery_1}_${Nrepeat_1}_${Nfreq}.xyz mol type x y z f_avg_ke_atm_1 f_avg_pe_atm_1 f_avg_pxx_atm_1[*]
dump        dump_1 all custom 4000 /shares_bgfs/dssimmons_data/harshad/deform/neat_polymer/config_4/5_deformwork_bgfs--h--harshad--simulation_9--neat_polymer--config_4--5_deform--traj.${Nevery_1}_${Nrepeat_1}_${Nfreq}.xyz mol type x y z f_avg_ke_atm_1 f_avg_pe_atm_1 f_avg_pxx_atm_1[*]
dump        dump_1 all custom 4000 /shares_bgfs/dssimmons_data/harshad/deform/neat_polymer/config_4/5_deformwork_bgfs--h--harshad--simulation_9--neat_polymer--config_4--5_deform--traj.1_${Nrepeat_1}_${Nfreq}.xyz mol type x y z f_avg_ke_atm_1 f_avg_pe_atm_1 f_avg_pxx_atm_1[*]
dump        dump_1 all custom 4000 /shares_bgfs/dssimmons_data/harshad/deform/neat_polymer/config_4/5_deformwork_bgfs--h--harshad--simulation_9--neat_polymer--config_4--5_deform--traj.1_1_${Nfreq}.xyz mol type x y z f_avg_ke_atm_1 f_avg_pe_atm_1 f_avg_pxx_atm_1[*]
dump        dump_1 all custom 4000 /shares_bgfs/dssimmons_data/harshad/deform/neat_polymer/config_4/5_deformwork_bgfs--h--harshad--simulation_9--neat_polymer--config_4--5_deform--traj.1_1_4000.xyz mol type x y z f_avg_ke_atm_1 f_avg_pe_atm_1 f_avg_pxx_atm_1[*]
dump_modify dump_1 append yes sort id

# COMPUTE a separate pe and ke for each group, AVG & SAVE
compute   pe_polymer    all reduce  sum c_pe_atm
compute   ke_polymer    all reduce  sum c_ke_atm
compute   ebond_polymer all reduce  sum c_ebond_atm
compute   pxx_polymer   all reduce  sum c_p_atm[1] c_p_atm[2] c_p_atm[3]
compute   pxy_polymer   all reduce  sum c_p_atm[4] c_p_atm[5] c_p_atm[6]
fix 		  avgEnergy     all     ave/time ${Nevery_1} ${Nrepeat_2} ${Nfreq} c_pe_polymer c_ke_polymer c_ebond_polymer c_pxy_polymer[1] c_pxy_polymer[2] c_pxy_polymer[3] file energy.avg.csv
fix 		  avgEnergy     all     ave/time 1 ${Nrepeat_2} ${Nfreq} c_pe_polymer c_ke_polymer c_ebond_polymer c_pxy_polymer[1] c_pxy_polymer[2] c_pxy_polymer[3] file energy.avg.csv
fix 		  avgEnergy     all     ave/time 1 100 ${Nfreq} c_pe_polymer c_ke_polymer c_ebond_polymer c_pxy_polymer[1] c_pxy_polymer[2] c_pxy_polymer[3] file energy.avg.csv
fix 		  avgEnergy     all     ave/time 1 100 4000 c_pe_polymer c_ke_polymer c_ebond_polymer c_pxy_polymer[1] c_pxy_polymer[2] c_pxy_polymer[3] file energy.avg.csv
fix       avgPxx_all    all     ave/time ${Nevery_1} ${Nfreq} ${Nfreq}     c_pxx_polymer[1] c_pxx_polymer[2] c_pxx_polymer[3]                                           file pxx.all.avg.csv
fix       avgPxx_all    all     ave/time 1 ${Nfreq} ${Nfreq}     c_pxx_polymer[1] c_pxx_polymer[2] c_pxx_polymer[3]                                           file pxx.all.avg.csv
fix       avgPxx_all    all     ave/time 1 4000 ${Nfreq}     c_pxx_polymer[1] c_pxx_polymer[2] c_pxx_polymer[3]                                           file pxx.all.avg.csv
fix       avgPxx_all    all     ave/time 1 4000 4000     c_pxx_polymer[1] c_pxx_polymer[2] c_pxx_polymer[3]                                           file pxx.all.avg.csv

# TIME-AVG Ly
variable Ly equal ly
fix       avgLy         all     ave/time ${Nevery_1} ${Nfreq} ${Nfreq}     v_Ly  file Ly.avg.csv
fix       avgLy         all     ave/time 1 ${Nfreq} ${Nfreq}     v_Ly  file Ly.avg.csv
fix       avgLy         all     ave/time 1 4000 ${Nfreq}     v_Ly  file Ly.avg.csv
fix       avgLy         all     ave/time 1 4000 4000     v_Ly  file Ly.avg.csv

# SIMULATION FIXES
fix  npt        all npt temp ${Temp} ${Temp} 2.0 y 0 0 5 z 0 0 5 couple yz
fix  npt        all npt temp 1 ${Temp} 2.0 y 0 0 5 z 0 0 5 couple yz
fix  npt        all npt temp 1 1 2.0 y 0 0 5 z 0 0 5 couple yz
fix  mom        all momentum 10000 linear 1 1 1
fix  deform     all deform 1 x erate ${gamma_rate} remap x units box
fix  deform     all deform 1 x erate 5e-05 remap x units box

# THERMO
variable  thermo_frq equal ${Nfreq}
variable  thermo_frq equal 4000
thermo    ${thermo_frq}
thermo    4000
thermo_style  custom step time temp press pe ke ebond etotal epair ecouple lx ly lz pxx pyy pzz pxy pxz pyz cpu cpuremain

# deform
run ${Run}
run 40000000
Generated 0 of 36 mixed pair_coeff terms from geometric mixing rule
Neighbor list info ...
  update: every = 1 steps, delay = 1 steps, check = yes
  max neighbors/atom: 2000, page size: 100000
  master list distance cutoff = 2.8
  ghost atom cutoff = 2.8
  binsize = 1.4, bins = 35 35 35
  1 neighbor lists, perpetual/occasional/extra = 1 0 0
  (1) pair lj/cut, perpetual
      attributes: half, newton on
      pair build: half/bin/newton
      stencil: half/bin/3d
      bin: standard
WARNING: Inconsistent image flags (src/domain.cpp:819)
Per MPI rank memory allocation (min/avg/max) = 12.77 | 12.77 | 12.78 Mbytes
   Step          Time           Temp          Press          PotEng         KinEng         E_bond         TotEng         E_pair        Ecouple           Lx             Ly             Lz            Pxx            Pyy            Pzz            Pxy            Pxz            Pyz            CPU          CPULeft    
         0   0              1.0015526      0.014491157    16.634445      1.5023142      21.106672      18.13676      -4.4722262      0              48.509258      48.509258      48.509258      0.035141418   -0.011719603    0.020051658   -0.042159874   -0.044761591   -0.046021807    0              0            
      4000   4              1.0015812      0.0019308003   16.625747      1.5023572      21.105121      18.128104     -4.4793737      907.26117      48.518959      48.482618      48.482618      0.021155164   -0.055757244    0.040394481    0.02495842     0.038295961   -0.03760629     33.325329      333219.97    
      8000   8              0.99638213     0.017162286    16.627638      1.4945586      21.106995      18.122197     -4.4793571      1533.0736      48.528661      48.480838      48.480838     -0.019070059    0.086546239   -0.015989323    0.034825509    0.021753522   -0.056996795    66.738676      333626.65    
     12000   12             0.99864115     0.014668316    16.633809      1.4979471      21.107871      18.131756     -4.4740621      573.65438      48.538363      48.499307      48.499307      0.040359962    0.01319562    -0.0095506353   0.014034939   -0.0025123043   0.005643215    100.40257      334574.82    
     16000   16             1.0002282     -0.032861878    16.640097      1.5003276      21.104967      18.140424     -4.4648706     -294.12677      48.548065      48.527898      48.527898     -0.0091938535  -0.058433268   -0.030958511    0.014284033    0.011753153   -0.0029099493   133.86756      334535.04    
     20000   20             0.9995336      0.0044451167   16.641734      1.4992858      21.109706      18.14102      -4.4679718     -334.66583      48.557767      48.498447      48.498447     -0.043654958   -0.039021528    0.096011836    0.042139997   -0.003961303   -0.015757432    167.64467      335121.7     
     24000   24             0.99979706    -0.019423672    16.631675      1.499681       21.104577      18.131356     -4.4729021      676.4699       48.567469      48.499628      48.499628     -0.047537375   -0.023061853    0.012328213    0.021720439   -0.02002719    -0.050932064    201.39083      335450       
     28000   28             1.000601       0.0075651353   16.641038      1.5008868      21.10366       18.141925     -4.4626223     -386.23227      48.57717       48.524052      48.524052      0.042051349   -0.02343504     0.0040790965  -0.010256987   -0.0066669135  -0.0086015422   234.47602      334731.28    
     32000   32             0.99989306     0.0034795066   16.644576      1.499825       21.108487      18.1444       -4.4639111     -619.05575      48.586872      48.517833      48.517833      0.009837748    0.041059093   -0.040458321    0.020931338    0.026762619    0.01158991     268.57527      335450.51    
     36000   36             0.99838008    -0.062461373    16.635238      1.4975555      21.107792      18.132793     -4.472554       590.63175      48.596574      48.4861        48.4861       -0.11900548    -0.011786392   -0.056592244    0.025864716    0.019993626    0.027686163    302.75534      336092.07    
     40000   40             0.99970854     0.030809289    16.642227      1.4995482      21.106279      18.141775     -4.4640514     -309.6957       48.606276      48.495266      48.495266      0.056729653    0.021561794    0.01413642    -0.022006019    0.003804551    0.018001768    336.1783       335842.12    
     44000   44             1.0001339     -0.0092845921   16.63801       1.5001862      21.106476      18.138196     -4.4684666      77.751633      48.615978      48.472432      48.472432     -0.028837086   -0.00029186219  0.0012751725  -0.054547278   -0.028137963    0.039721582    369.664        335688.52    
     48000   48             0.99804011     0.069376668    16.634394      1.4970456      21.101603      18.13144      -4.4672087      791.03137      48.62568       48.456481      48.456481      0.026716636    0.064250725    0.11716264    -0.011234143    0.032343254   -0.0064362207   403.25798      335645.06    
     52000   52             1.0044606      0.026476285    16.636783      1.5066763      21.107522      18.143459     -4.4707391     -420.00633      48.635382      48.443682      48.443682      0.006289095    0.062171928    0.010967831    0.0052508322   0.040938074    0.01102932     436.04782      334985.35    
     56000   56             1.0013379      0.055550286    16.638662      1.5019921      21.107772      18.140654     -4.4691096     -111.96067      48.645083      48.440446      48.440446      0.053927147    0.10768336     0.0050403541   0.034459214   -0.020514444   -0.01256899     468.98191      334518.1     
     60000   60             1.0028388      0.045469414    16.631318      1.5042435      21.10466       18.135562     -4.4733422      430.50877      48.654785      48.438288      48.438288      0.032461675    0.068983212    0.034963356   -0.039662647   -0.027115441   -0.012340159    501.84171      334059.3     
     64000   64             1.0032491      0.013510003    16.632966      1.504859       21.106648      18.137825     -4.4736821      219.08403      48.664487      48.431364      48.431364      0.014797858    0.080105193   -0.054373042   -0.018897361    0.0096202372   0.0012383951   535.14896      333932.95    
     68000   68             1.0015843     -0.053581706    16.645332      1.5023619      21.11263       18.147694     -4.4672984     -771.44013      48.674189      48.458027      48.458027      0.0015543617  -0.059601791   -0.10269769     0.011817629   -0.033916531   -0.0074432903   568.8201       334031.24    
     72000   72             1.0014363      0.030607769    16.632197      1.5021398      21.105764      18.134337     -4.4735662      617.97712      48.683891      48.412047      48.412047      0.085433244    0.010257534   -0.0038674721   0.0038183365  -0.015484576    0.0057634153   601.80683      333735.32    
     76000   76             1.0001908     -0.03021892     16.631709      1.5002715      21.106305      18.131981     -4.4745962      879.78169      48.693593      48.419105      48.419105     -0.025607816   -0.0037536299  -0.061295313   -0.041243426    0.030048146   -0.0038340774   635.14197      333650.11    
     80000   80             1.0014288     -0.028484421    16.642246      1.5021285      21.107481      18.144374     -4.4652347     -369.30879      48.703295      48.43991       48.43991      -0.052850329   -0.043959408    0.011356474   -0.0097148587   0.0053683557   0.042869363    668.17103      333417.34    
     84000   84             0.99986672     0.047130457    16.642318      1.4997854      21.106196      18.142103     -4.4638782     -115.87187      48.712996      48.428108      48.428108      0.053437723    0.087961486   -7.8393373e-06 -0.011974223    0.0031067307  -0.047912051    702.07799      333620.78    
     88000   88             1.0018253      0.02949482     16.628763      1.5027233      21.106459      18.131487     -4.4776955      992.87276      48.722698      48.381709      48.381709      0.0030555809   0.059169682    0.026259198    0.026330165   -0.042011892    0.041017149    735.44254      333556.62    
     92000   92             0.9993884     -0.047942351    16.630518      1.499068       21.105365      18.129586     -4.4748472      1207.8311      48.7324        48.397509      48.397509     -0.032638963   -0.05683247    -0.05435562     0.038745645   -0.017539769   -0.034529367    769.29778      333708       
     96000   96             1.0012408      0.01770703     16.637429      1.5018466      21.107519      18.139275     -4.4700899      235.62009      48.742102      48.399659      48.399659      0.06357574     0.011605286   -0.022059937   -0.084396783    0.0086560025   0.035142394    802.27822      333480.31    
    100000   100            0.99552345    -0.02164872     16.638625      1.4932706      21.103683      18.131896     -4.4650574      1012.3606      48.751804      48.416525      48.416525     -0.037338804    0.0038275623  -0.031434919    0.0055314779  -0.0061922895   0.0064720846   835.22795      333255.95    
    104000   104            1.0013478     -0.030920891    16.638536      1.5020071      21.107003      18.140543     -4.4684668      146.588        48.761506      48.413836      48.413836     -0.03004366    -0.047254532   -0.01546448     0.011183854    0.015065544    0.011254731    868.93934      333338.5     
    108000   108            1.0024261     -0.028709303    16.638152      1.5036245      21.108217      18.141776     -4.4700651      40.780468      48.771208      48.402994      48.402994     -0.071957061    0.012251755   -0.026422602   -0.018092316    0.011234513    0.020853378    902.88268      333498.11    
    112000   112            0.99946545    -0.028936632    16.632973      1.4991836      21.106602      18.132156     -4.4736297      1047.1671      48.780909      48.380324      48.380324     -0.076244172   -0.010666917    0.00010119288  0.019437808   -0.045118436   -0.028647697    936.46294      333514.59    
    116000   116            0.99884119    -0.0030317707   16.637575      1.4982472      21.105537      18.135823     -4.4679615      692.16553      48.790611      48.391364      48.391364      0.009089769   -0.0099448651  -0.0082402161   0.064346075   -0.023209467   -0.013822347    970.22442      333589.92    
    120000   120            1.0019578      0.00031428299  16.642863      1.5029221      21.107327      18.145786     -4.4644636     -308.785        48.800313      48.398255      48.398255     -0.054525716    0.036125071    0.019343494    0.056434007   -0.045343941   -0.00086290282  1003.0927      333361.14    
    124000   124            1.0049242      0.012734232    16.642076      1.5073716      21.112115      18.149448     -4.4700386     -663.36451      48.810015      48.375128      48.375128      0.041276876   -0.021744804    0.018670625    0.035965455    0.0041634935   0.015937591    1035.9955      333156.11    
    128000   128            0.99887135     0.041766725    16.639055      1.4982924      21.10923       18.137348     -4.4701751      597.62015      48.819717      48.353596      48.353596      0.035521893    0.070366789    0.019411491    0.020719579    0.00052205721 -0.027109461    1069.191       333053       
    132000   132            1.0015664      0.02379144     16.62839       1.5023349      21.10356       18.130725     -4.4751705      1296.6975      48.829419      48.348675      48.348675      0.0039235182   0.053035724    0.014415078   -0.0067197292   0.015356052   -0.028592952    1103.4487      333274.94    
    136000   136            1.0023849      0.024560935    16.641768      1.5035627      21.110388      18.145331     -4.4686201     -179.48313      48.83912       48.366845      48.366845      0.033033737   -0.012185364    0.052834434    0.02884533    -0.005937149    0.0040512467   1137.2921      333360.4     
    140000   140            1.000909      -0.0092319168   16.637235      1.5013489      21.109476      18.138584     -4.472241       532.48882      48.848822      48.343611      48.343611      0.026387843   -0.0067308771  -0.047352717    0.036414436   -0.045489914    0.019868873    1171.3686      333505.37    
    144000   144            0.99827204     0.01326998     16.63289       1.4973934      21.107195      18.130283     -4.4743052      1403.6153      48.858524      48.339051      48.339051      0.030818612    0.011601269   -0.0026099397   0.028639849   -0.0053174451   0.0034973079   1204.7675      333452.86    
    148000   148            1.0014504      0.013326761    16.636223      1.502161       21.110794      18.138384     -4.4745708      594.08358      48.868226      48.31984       48.31984      -0.022540556    0.01282209     0.049698749    0.0095255696  -0.013015508    0.020160345    1238.7857      333568.15    
    152000   152            1.002997       0.010919927    16.634337      1.5044808      21.106174      18.138818     -4.4718365      570.06103      48.877928      48.324259      48.324259      0.018401562    0.025208508   -0.01085029    -0.021248239   -0.024304137    0.015447077    1272.231       333525.39    
    156000   156            1.0029234     -0.0039204261   16.63352       1.5043704      21.110836      18.13789      -4.4773165      685.38383      48.88763       48.300343      48.300343      0.0080233232  -0.023865352    0.0040807506   0.0025093612  -0.00021969015 -0.023314224    1305.6913      333486.95    
    160000   160            0.99634128    -0.021091934    16.638208      1.4944973      21.107656      18.132706     -4.4694479      1237.0444      48.897332      48.34394       48.34394      -0.0029109238  -0.014522879   -0.045841998   -0.010482385   -0.007635669    0.04828833     1338.1855      333208.2     
    164000   164            0.99880328    -0.037593019    16.640648      1.4981903      21.10701       18.138838     -4.4663626      628.72091      48.907033      48.343618      48.343618     -0.068122315    0.012100729   -0.05675747    -0.049919808   -0.018770475   -0.0036186175   1371.9865      333258.87    
    168000   168            1.0016679      0.012732084    16.62187       1.5024872      21.103018      18.124357     -4.4811483      2133.0291      48.916735      48.279173      48.279173     -0.022846902    0.030942721    0.030100434   -0.00035281428  0.017753648   -0.001737769    1405.6282      333267.76    
    172000   172            0.99884965     0.015171647    16.634445      1.4982599      21.10464       18.132705     -4.4701954      1297.8665      48.926437      48.306267      48.306267     -0.023845306    0.0340087      0.035351547    0.043427108   -0.050200871    0.024925577    1440.0986      333466.56    
    176000   176            0.9970857      0.054667876    16.642246      1.495614       21.108821      18.13786      -4.4665752      789.98926      48.936139      48.312419      48.312419      0.037227184    0.086838241    0.039938203   -0.023068113   -0.0027780046   0.0021456311   1473.6254      333441.24    
    180000   180            1.0033699     -0.019448736    16.634713      1.5050402      21.103637      18.139754     -4.4689239      616.02726      48.945841      48.317746      48.317746     -0.024076243   -0.048208784    0.01393882     0.010136811   -0.00059218518  0.029888563    1507.3821      333466.42    
    184000   184            1.0002811      0.013654548    16.63287       1.500407       21.105188      18.133277     -4.4723173      1300.5487      48.955543      48.304961      48.304961     -0.029480264    0.02124926     0.049194648   -0.015346734   -0.045443344   -0.028353905    1539.6354      333163.71    
    188000   188            0.99553553    -0.028138019    16.636456      1.4932887      21.105297      18.129745     -4.4688414      1683.3843      48.965245      48.292834      48.292834     -0.039731342   -0.011646177   -0.033036539   -0.026971451   -0.024047137    0.043249525    1572.4897      332999.78    
    192000   192            1.0016058     -0.0048957066   16.64043       1.502394       21.105282      18.142823     -4.4648521      363.30719      48.974946      48.310885      48.310885     -0.035649677    0.034039119   -0.013076562   -0.020297      -0.011168815   -0.035675434    1605.4032      332853.59    
    196000   196            0.9997695     -0.00023832824  16.638867      1.4996396      21.106439      18.138507     -4.4675712      826.22032      48.984648      48.287674      48.287674     -0.034224559    0.029842318    0.0036672564   0.01116268    -0.0059343548   0.057752327    1638.8888      332828.22    
    200000   200            0.9998564     -0.05524835     16.630575      1.49977        21.10346       18.130344     -4.472885       1683.065       48.99435       48.284956      48.284956     -0.05129214    -0.055889897   -0.058563015    0.02150664    -0.04880439     0.076667972    1672.7241      332872.09    
    204000   204            0.99606559     0.014154888    16.645704      1.4940838      21.106451      18.139787     -4.4607473      735.77342      49.004052      48.306948      48.306948      0.017831316   -0.031313453    0.055946801   -0.055123267   -0.03156948    -0.023204336    1706.2281      332848.3     
    208000   208            1.0002879     -0.028377614    16.650895      1.5004172      21.110299      18.151312     -4.4594044     -425.10472      49.013754      48.312462      48.312462     -0.033936581   -0.030372356   -0.020823905    0.029372387   -0.035162506   -0.0060405444   1739.5269      332784.88    
    212000   212            0.99924041    -0.069466752    16.639932      1.498846       21.111508      18.138778     -4.4715766      879.86276      49.023456      48.277205      48.277205     -0.05567448    -0.054836083   -0.097889694   -0.0052445129   0.0032875331  -0.0058945682   1772.4395      332650.1     
    216000   216            0.99670598    -0.02301386     16.63346       1.4950444      21.104931      18.128504     -4.4714709      1953.136       49.033158      48.26592       48.26592       0.0094149589  -0.074137146   -0.004319392    0.014654077    0.028713992   -0.04321042     1805.9125      332622.32    
    220000   220            0.99944358    -0.028406884    16.639732      1.4991507      21.108763      18.138883     -4.4690314      909.86401      49.042859      48.272508      48.272508      0.023126055   -0.028596537   -0.079750171    0.021093004   -0.056170003   -0.012300006    1838.9047      332507.41    
    224000   224            1.0022294      0.073595988    16.638358      1.5033295      21.111424      18.141687     -4.4730668      642.6964       49.052561      48.23291       48.23291       0.058016136    0.070750213    0.092021616    0.07410531    -0.0059831755  -0.017942605    1871.732       332366.12    
    228000   228            0.99734145    -0.04277927     16.637875      1.4959976      21.105764      18.133873     -4.4678892      1463.9247      49.062263      48.259913      48.259913     -0.048223526   -0.050334137   -0.029780147    0.034642763   -0.0065365195  -0.019869796    1905.3555      332367.54    
    232000   232            0.99858761    -0.0093333974   16.640954      1.4978668      21.108013      18.13882      -4.4670591      977.64124      49.071965      48.260442      48.260442      0.0078740916  -0.079232529    0.043358245   -0.0011845215  -0.012527787   -0.03934129     1938.3418      332258.52    
    236000   236            0.99721727     0.021567474    16.636406      1.4958113      21.105302      18.132217     -4.4688957      1674.3691      49.081667      48.242299      48.242299      0.0415297     -0.0023652122   0.025537935   -0.0026150462  -0.042325019    0.022513151    1971.9285      332253.24    
    240000   240            0.9970228      0.022174465    16.63696       1.4955196      21.104615      18.13248      -4.4676549      1668.0387      49.091369      48.239731      48.239731     -0.028659349    0.074705928    0.020476815   -0.010303663    0.010245955    0.031353156    2004.602       332095.73    
    244000   244            1.0010842     -0.045554299    16.639474      1.5016117      21.109725      18.141086     -4.4702506      806.38919      49.10107       48.234891      48.234891     -0.041504501   -0.044818453   -0.050339943   -0.025247448    0.044604911   -0.012019483    2037.8999      332044.05    
    248000   248            0.99401892    -0.04850821     16.637025      1.4910138      21.105638      18.128039     -4.4686131      2163.7953      49.110772      48.229743      48.229743     -0.055996276   -0.06291895    -0.026609403   -0.034357613    0.022696122    0.013709953    2072.1353      332143.23    
    252000   252            0.99641665    -0.0079833048   16.633922      1.4946104      21.10629       18.128532     -4.4723676      2133.4007      49.120474      48.221352      48.221352     -0.0083989631  -0.011123282   -0.0044276697   0.030515993   -0.020000773    0.0022838284   2105.6675      332127.28    
    256000   256            1.0030324     -0.013362572    16.631688      1.504534       21.102878      18.136222     -4.4711898      1365.6877      49.130176      48.220119      48.220119     -0.010567979   -0.0094584347  -0.020061303    0.010159215   -0.033687736   -0.0062063242   2139.4969      332156.9     
    260000   260            1.0012394      0.0046644159   16.637608      1.5018444      21.108896      18.139452     -4.4712882      1055.2909      49.139878      48.199218      48.199218      0.025274637   -0.038304455    0.027023065   -0.020509434    0.014648568   -0.048891168    2173.4865      332209.05    
    264000   264            0.9995658      0.041607063    16.636222      1.4993341      21.110819      18.135556     -4.4745979      1475.1537      49.14958       48.194185      48.194185      0.058656165    0.058533151    0.0076318722  -0.021634348   -0.011526764   -0.036777105    2207.1757      332213.39    
    268000   268            0.99636553    -0.045107855    16.628351      1.4945337      21.109121      18.122885     -4.4807698      2794.2863      49.159282      48.169371      48.169371     -0.036938473   -0.03625575    -0.062129342    0.0018806548   0.033661266   -0.014547737    2241.1445      332258.03    
    272000   272            0.99713095    -0.063891601    16.63829       1.4956818      21.107102      18.133972     -4.4688125      1678.6083      49.168983      48.213178      48.213178     -0.08398577    -0.053498612   -0.054190419    0.0030352755   0.0099186702   0.016192511    2275.1783      332309.87    
    276000   276            1.0006219     -0.052852019    16.639505      1.5009182      21.108926      18.140423     -4.4694208      1037.5846      49.178685      48.181831      48.181831     -0.051917635   -0.055090568   -0.051547855    0.020663216    0.026699597    0.043243961    2308.8339      332304.77    
    280000   280            0.99734398     0.010747026    16.632639      1.4960014      21.105613      18.128641     -4.4729736      2265.837       49.188387      48.171838      48.171838     -0.037372198    0.0056141      0.063999177   -0.0043655531  -0.025748208   -0.0048538293   2342.4755      332296.87    
    284000   284            1.0005828     -0.025189984    16.629498      1.5008596      21.103136      18.130358     -4.473638       2110.1688      49.198089      48.189106      48.189106     -0.015407184   -0.020332007   -0.039830761    0.032343904   -0.024788357    0.0024958993   2375.9235      332261.19    
    288000   288            1.0005364      0.014487257    16.63694       1.50079        21.107014      18.13773      -4.470074       1374.6999      49.207791      48.175381      48.175381     -0.018478371    0.03688436     0.025055781    0.0023967547  -0.023824632    0.034682872    2410.0936      332325.13    
    292000   292            0.99937867    -0.034227362    16.628418      1.4990534      21.10589       18.127472     -4.4774718      2446.6933      49.217493      48.172043      48.172043     -0.069977655   -0.0024909404  -0.03021349     0.020197242    0.010170126   -0.047305087    2443.2351      332246.5     
    296000   296            1.001038       0.0040852413   16.635135      1.5015424      21.105079      18.136678     -4.4699435      1523.2403      49.227195      48.17168       48.17168       0.041974343   -0.011469717   -0.018248902    0.026177261   -0.01061966     0.0054794891   2477.1438      332272.02    
    300000   300            0.99991747     0.034098632    16.643551      1.4998616      21.108016      18.143412     -4.4644655      854.00382      49.236896      48.164833      48.164833      0.053746924    0.04654894     0.0020000302   0.054222231    0.02533712     0.016810233    2511.7808      332392.33    
    304000   304            0.99824532    -0.0015566544   16.636001      1.4973534      21.105946      18.133354     -4.4699446      1904.8251      49.246598      48.153995      48.153995     -0.014182332   -0.00688198     0.016394349   -0.024958909   -0.0071034868   0.033792469    2545.2944      332361.86    
    308000   308            0.99835138     0.0049181253   16.634356      1.4975125      21.106337      18.131869     -4.4719803      2077.6593      49.2563        48.15226       48.15226       0.020046282    0.0065091682  -0.011801074   -0.012788227    0.034584116    0.015105971    2579.4598      332415.32    
    312000   312            1.0034078      0.023614869    16.63989       1.505097       21.108198      18.144987     -4.4683078      753.44025      49.266002      48.144597      48.144597      0.035803066    0.045315094   -0.010273553   -0.0300925     -0.0070874014  -0.024764044    2613.2016      332412.64    
    316000   316            1.0012933      0.055655025    16.635126      1.5019252      21.107341      18.137051     -4.4722154      1587.5127      49.275704      48.122273      48.122273      0.024553434    0.059036465    0.083375175    0.0053365592  -0.046546517   -0.0060376338   2646.5958      332365.53    
    320000   320            0.99785822     0.01183764     16.633731      1.4967727      21.112067      18.130504     -4.4783359      2279.3185      49.285406      48.111749      48.111749      0.03261904     0.032686917   -0.029793036    0.0056302089  -0.012949949   -0.028403617    2680.2392      332349.66    
    324000   324            1.000027      -0.011927389    16.644768      1.5000259      21.109634      18.144794     -4.4648664      835.19786      49.295108      48.148739      48.148739     -0.058647056    0.033885703   -0.011020814   -0.028132595   -0.0055376768  -0.0065086741   2714.3766      332393.85    
    328000   328            1.0019975      0.026342268    16.638294      1.5029815      21.109032      18.141276     -4.4707379      1216.4539      49.304809      48.127515      48.127515      0.007086351    0.098439065   -0.026498613   -0.0075996864   0.023435679   -0.015901552    2749.0332      332498.91    
    332000   332            1.00011        0.01842176     16.635263      1.5001503      21.106695      18.135414     -4.4714312      1837.6984      49.314511      48.104977      48.104977     -0.01081171     0.0070688679   0.059008123    0.014206729    0.032450546   -0.00051599835  2783.2074      332542.98    
    336000   336            1.0023425     -0.0069945003   16.634047      1.5034991      21.103714      18.137546     -4.4696668      1639.8119      49.324213      48.132241      48.132241     -0.023798171    0.0063194513  -0.0035047807  -0.009208424   -0.012061429    0.0088515816   2816.9858      332538.47    
    340000   340            1.0042629     -0.028928133    16.642023      1.5063797      21.110348      18.148402     -4.4683257      547.82929      49.333915      48.136636      48.136636     -0.050819914   -0.0010135398  -0.034950947    0.023222433    0.0092184164   0.0089220258   2850.5819      332512       
    344000   344            1.0005429      0.0074081416   16.635886      1.5007998      21.108537      18.136686     -4.4726505      1769.4139      49.343617      48.105727      48.105727      0.047745359   -0.0055101012  -0.020010833    0.033206909   -0.0046489109   0.016331803    2883.8169      332443.73    
    348000   348            1.0013213      0.022154546    16.630157      1.5019673      21.104841      18.132124     -4.4746839      2257.3484      49.353319      48.093086      48.093086      0.025548456    0.027609021    0.01330616    -0.041346719   -0.0022561037   0.010727932    2917.495       332426.76    
    352000   352            0.9964608      0.010837176    16.627484      1.4946766      21.101711      18.12216      -4.4742272      3298.6595      49.36302       48.095885      48.095885      0.015918512   -0.020393543    0.036986558   -0.035128229   -0.023353069    0.016255815    2951.0315      332393.46    
    356000   356            1.001094      -0.023624167    16.633986      1.5016263      21.10639       18.135612     -4.4724045      1940.1069      49.372722      48.086797      48.086797     -0.0018893916  -0.02453553    -0.04444758     0.008262363   -0.050473657   -0.047277074    2984.4232      332344.03    
    360000   360            0.99806409     0.041292826    16.635095      1.4970815      21.104204      18.132176     -4.4691088      2312.232       49.382424      48.089121      48.089121      0.024739887    0.057930213    0.041208379    0.034461843    0.015730793   -0.038844905    3017.7445      332287.2     
    364000   364            1.0011187      0.030442055    16.634799      1.5016635      21.105227      18.136463     -4.4704275      1893.0423      49.392126      48.075187      48.075187      0.045016228    0.0099439476   0.03636599    -0.0042542969   0.0077093772  -0.010520613    3051.2747      332253.63    
    368000   368            1.0028013     -0.011364333    16.640662      1.5041873      21.107488      18.14485      -4.4668258      1053.8896      49.401828      48.097907      48.097907      0.00087146881 -0.0031579075  -0.031806561   -0.030620678   -0.013774287    0.051608916    3084.6162      332199.76    
    372000   372            1.0009011      0.042597548    16.630664      1.5013369      21.103405      18.132001     -4.4727411      2391.0978      49.41153       48.061666      48.061666      0.035839299    0.050160549    0.041792795    0.027388279    0.029299822   -0.031309464    3117.7021      332119.09    
    376000   376            0.99879948    -0.075472567    16.631458      1.4981846      21.103217      18.129643     -4.4717592      2653.3074      49.421232      48.081621      48.081621     -0.14781806    -0.05300443    -0.025595206   -0.0091207351  -0.048090401    0.047148833    3151.2468      332087.77    
    380000   380            0.99742535    -0.045695648    16.639699      1.4961234      21.105612      18.135823     -4.4659123      2040.5051      49.430933      48.09104       48.09104      -0.033668313   -0.075031404   -0.028387228   -0.020317695    0.021251526   -0.023709012    3184.6036      332036.83    
    384000   384            0.99993649     0.00029754377  16.642071      1.4998901      21.106432      18.141961     -4.4643603      1432.0182      49.440635      48.072939      48.072939      0.011890445   -0.0023434184  -0.0086543954  -0.074437267    0.017288182    0.0054343144   3218.1102      332001.7     
    388000   388            1.0060862     -0.0053633675   16.643172      1.5091145      21.111319      18.152286     -4.4681475      394.0232       49.450337      48.049329      48.049329     -0.020606129   -0.0057863747   0.010302401   -0.0011130672   0.012197675   -0.033426327    3251.0726      331911.05    
    392000   392            1.0025148     -0.028431281    16.633992      1.5037575      21.106165      18.13775      -4.4721724      1904.3258      49.460039      48.052596      48.052596     -0.039875127    0.014740811   -0.060159526   -0.0056964917   0.003013656   -0.019705219    3284.7087      331889.65    
    396000   396            1.0025444     -0.0095690469   16.630756      1.503802       21.108861      18.134558     -4.4781055      2251.8677      49.469741      48.023318      48.023318      0.016893213   -0.0084762607  -0.037124093   -0.0060397601  -0.023741205    0.04131422     3317.7165      331805.16    
    400000   400            0.99643179     0.016351179    16.632228      1.4946331      21.107671      18.126861     -4.4754432      3060.9709      49.479443      48.020736      48.020736      0.053854822   -0.021008114    0.01620683     0.035218684    0.030520213   -0.042282975    3350.942       331743.26    
    404000   404            1.0003507      0.019507628    16.635016      1.5005114      21.109093      18.135527     -4.4740776      2193.2068      49.489145      48.02207       48.02207       0.018481306   -0.01011625     0.050157827   -0.016239217    0.039347769    0.014276355    3384.5973      331724.05    
    408000   408            1.0015587     -0.011779535    16.639026      1.5023234      21.109373      18.141349     -4.4703471      1617.1357      49.498846      48.03268       48.03268      -0.014704605   -0.046999286    0.026365285   -0.0088067776  -0.0062076717   0.012253767    3418.437       331722.45    
    412000   412            0.99625685    -0.0018379513   16.633218      1.4943707      21.10437       18.127589     -4.4711515      3047.89        49.508548      48.029198      48.029198     -0.034052337    0.074619371   -0.046080888   -0.011397179    0.03375906    -0.035584382    3452.6176      331752.97    
    416000   416            0.99632103     0.0071716644   16.632783      1.494467       21.106127      18.12725      -4.4733447      3103.0557      49.51825       48.029734      48.029734     -0.024673753    0.017918202    0.028270544   -0.01423898    -0.044131306   -0.023503309    3486.0507      331711.13    
    420000   420            0.99978177    -0.0095212139   16.637294      1.499658       21.107488      18.136952     -4.4701941      2128.867       49.527952      48.022831      48.022831     -0.025294087   -0.0069637974   0.0036942433   0.029073863    0.012135563    0.0061069214   3519.7143      331691.17    
    424000   424            1.0011035      0.0065010453   16.633991      1.5016406      21.108051      18.135631     -4.4740606      2284.5305      49.537654      47.998796      47.998796     -0.036959612   -0.0061564145   0.062619162    0.021652451    0.045915606    0.0049577332   3553.0989      331644.91    
    428000   428            0.9985518     -0.018463963    16.631128      1.4978131      21.103728      18.128941     -4.4726004      2990.6098      49.547356      47.994407      47.994407     -0.0027716704  -0.035490012   -0.017130205    0.043037346    0.025146203   -0.0055819675   3587.5385      331696.43    
    432000   432            0.99686905     0.058041816    16.642804      1.495289       21.109633      18.138093     -4.466829       2073.2181      49.557057      48.007751      48.007751      0.059884341    0.062663472    0.051577636    0.038142279   -0.02087789     0.005519717    3621.1109      331666.93    
    436000   436            1.0018029     -0.029599688    16.636998      1.5026897      21.111814      18.139688     -4.4748154      1930.0687      49.566759      47.993864      47.993864     -0.011310213   -0.036831097   -0.040657755    0.030104855   -0.014931163    0.017802537    3654.776       331645.78    
    440000   440            0.99771248     0.030239484    16.638231      1.4965541      21.1094        18.134785     -4.4711691      2453.1806      49.576461      47.980835      47.980835      0.027014697    0.072586436   -0.0088826801  -0.011720615   -0.035828233    0.077298771    3687.6848      331556.39    
    444000   444            1.0014862     -0.011463064    16.634321      1.5022146      21.106553      18.136535     -4.4722324      2293.8404      49.586163      47.976212      47.976212      0.029428106   -0.050483317   -0.01333398     0.039059946    0.019756517   -0.016510578    3721.2875      331529.84    
    448000   448            0.99983721     0.028832952    16.636019      1.4997412      21.107433      18.135761     -4.4714136      2393.7925      49.595865      47.97704       47.97704       0.038810067    0.01497512     0.032713669   -0.0018638502   0.0033314881   0.010525931    3754.5708      331474.96    
    452000   452            1.0019677     -0.017228281    16.639626      1.5029369      21.108142      18.142563     -4.468516       1716.7162      49.605567      47.985261      47.985261     -0.036942883    0.02519434    -0.039936298   -0.0050593895   0.013570912   -0.0090809051   3787.7027      331407.23    
    456000   456            0.99745698     0.0014816105   16.634559      1.4961709      21.106239      18.130729     -4.4716801      2949.354       49.615269      47.977648      47.977648      0.037683995   -0.019112729   -0.014126434   -0.01755986     0.019123529    0.052075327    3820.97        331351.83    
    460000   460            0.99843237    -0.074119306    16.636045      1.4976339      21.103722      18.133679     -4.4676767      2667.1919      49.62497       47.999383      47.999383     -0.18188279     0.0079535799  -0.048428705   -0.0033910202  -0.0037611824   0.011432147    3855.4754      331403.25    
    464000   464            0.9998815     -0.023458848    16.639368      1.4998076      21.102874      18.139175     -4.4635064      2124.201       49.634672      47.980154      47.980154     -0.057537989   -0.029656093    0.016817539   -0.027980085   -0.019539642    0.01228135     3888.7812      331350.98    
    468000   468            1.0005412     -0.051052704    16.637712      1.5007971      21.106294      18.138509     -4.4685823      2213.167       49.644374      47.986309      47.986309     -0.043093248   -0.044008119   -0.066056745    0.028495676   -0.0098730214  -0.00032593513  3923.1286      331387.01    
    472000   472            0.99746835     0.01088141     16.635871      1.4961879      21.102036      18.132059     -4.4661647      2894.6584      49.654076      47.967726      47.967726      0.011859131    0.043485122   -0.022700024    0.022797691    0.010152276    0.0007594645   3955.6842      331271.79    
    476000   476            1.0014932      0.0099019267   16.63387       1.5022251      21.104298      18.136096     -4.4704276      2501.0553      49.663778      47.962839      47.962839      0.00044889552  0.079719191   -0.050462306    0.057955696   -0.039590248    0.066094463    3989.0278      331223.39    
    480000   480            1.0000703      0.0052346517   16.642517      1.5000908      21.110013      18.142608     -4.4674957      1854.1415      49.67348       47.956778      47.956778      0.053660135   -0.059055362    0.021099182    0.021697502    0.018682518   -0.018956254    4023.1031      331235.48    
    484000   484            1.0004533     -0.0075578603   16.636631      1.5006653      21.109228      18.137297     -4.4725964      2418.8961      49.683182      47.942936      47.942936     -0.024339606    0.0081376762  -0.006471651   -0.033674071    0.051176096   -0.046015232    4055.9178      331143.9     
    488000   488            0.99557619    -0.068061233    16.63621       1.4933497      21.104012      18.12956      -4.4678018      3231.9415      49.692883      47.964418      47.964418     -0.066312805   -0.063916619   -0.073954275   -0.029950211    0.058808277    0.019250808    4088.7172      331052.04    
    492000   492            1.0000345     -0.050880416    16.640178      1.5000371      21.108681      18.140215     -4.4685027      2160.2848      49.702585      47.959334      47.959334     -0.080307874   -0.02101973    -0.051313643   -0.011737139    0.019480342    0.026118219    4122.1794      331014.36    
    496000   496            1.0017122     -0.0014647395   16.639913      1.5025536      21.108115      18.142466     -4.4682024      1949.9614      49.712287      47.942032      47.942032     -0.012565977   -0.014358511    0.02253027    -0.00053850024 -0.004001744   -0.019410362    4155.1963      330941.28    
    500000   500            0.99895834    -0.015944548    16.634089      1.4984229      21.103059      18.132512     -4.4689703      2990.3961      49.721989      47.946734      47.946734     -0.060535458   -0.013064004    0.025765817   -0.043439367   -0.044569295   -0.026318501    4187.9926      330851.42    
    504000   504            0.99994434    -0.023116149    16.633342      1.4999019      21.105524      18.133244     -4.4721817      2935.6165      49.731691      47.935931      47.935931     -0.019025276   -0.044563666   -0.005759506   -0.01764752    -0.029819035   -0.01508619     4220.559       330744.44    
    508000   508            0.99714686     0.00090334424  16.642451      1.4957057      21.108996      18.138156     -4.4665452      2452.1169      49.741393      47.927804      47.927804      0.013846851    0.014310051   -0.025446869   -0.014317521   -0.0042804674  -0.0089511033   4253.1881      330643.51    
    512000   512            0.99937054    -0.033823622    16.645606      1.4990412      21.111334      18.144647     -4.465728       1807.3438      49.751095      47.949271      47.949271     -0.039362817    0.010773689   -0.072881738   -0.00046868758 -0.0049241674   0.0070408718   4286.019       330559.22    
    516000   516            0.99767504    -0.035465797    16.635464      1.496498       21.107066      18.131962     -4.4716024      3127.4275      49.760796      47.895039      47.895039     -0.001427328   -0.075883769   -0.029086293    0.0033870878  -0.02109611     0.026253005    4319.9438      330559.42    
    520000   520            1.0024593     -0.06680976     16.630241      1.5036742      21.106664      18.133916     -4.4764223      2947.2042      49.770498      47.89796       47.89796      -0.053381287   -0.11103604    -0.036011953    0.029177111    0.0077003028   0.055575322    4353.338       330518.82    
    524000   524            0.99920473    -0.0056502107   16.642346      1.4987925      21.110002      18.141138     -4.4676563      2227.8007      49.7802        47.911582      47.911582     -0.010692836   -0.031689894    0.025432098   -0.026413675   -0.020432211   -0.018165783    4387.2264      330515.55    
    528000   528            0.99861856     0.047251672    16.641354      1.4979132      21.109162      18.139267     -4.4678082      2439.7841      49.789902      47.894587      47.894587      0.026448019    0.036299405    0.079007593    0.0019215796   0.0025765285   0.029635527    4420.5421      330469.01    
    532000   532            0.99858236    -0.024352799    16.632497      1.4978589      21.102651      18.130356     -4.4701533      3372.9181      49.799604      47.895638      47.895638     -0.044253637   -0.025390142   -0.0034146166  -0.033656074   -0.022297646   -0.016175579    4453.7945      330417.97    
    536000   536            1.0002661      0.0062455829   16.632429      1.5003846      21.101857      18.132814     -4.4694279      3141.269       49.809306      47.883582      47.883582     -0.0080068162   0.05699733    -0.030253765    0.022729908    0.026088204   -0.0059474075   4487.61        330408.66    
    540000   540            0.99870944    -0.024956658    16.645494      1.4980496      21.110282      18.143543     -4.4647883      2062.0829      49.819007      47.899516      47.899516     -0.068201076    0.015943525   -0.022612423    0.040161923    0.050414777   -0.0018856958   4520.9537      330364.51    
    544000   544            0.99693448    -0.018637738    16.637064      1.4953871      21.105311      18.132451     -4.4682473      3218.7774      49.828709      47.895041      47.895041     -0.024632754   -0.058528949    0.02724849    -0.0020943769   0.0058538195   0.0088643184   4554.2999      330320.69    
    548000   548            0.99746922     0.0041415676   16.638378      1.4961892      21.108528      18.134567     -4.4701502      3022.0533      49.838411      47.877208      47.877208     -0.014644551    0.00053579103  0.026533463   -0.012113731   -0.027649877   -8.9371546e-05  4587.8653      330292.81    
    552000   552            0.99763345    -0.078550456    16.639258      1.4964356      21.108632      18.135693     -4.4693738      2927.1368      49.848113      47.883933      47.883933     -0.067302565   -0.091085039   -0.077263764    0.0016800153  -0.012783736    0.0098117216   4621.4789      330268.3     
    556000   556            0.9997261      0.058951388    16.625359      1.4995745      21.105384      18.124934     -4.4800244      4050.0367      49.857815      47.830333      47.830333      0.074589201    0.062157089    0.040107875    0.030593924   -0.0038905765  -0.038529414    4654.9295      330232.08    
    560000   560            1.0016737     -0.0078963712   16.62693       1.5024959      21.103351      18.129426     -4.4764205      3609.5804      49.867517      47.834893      47.834893      0.026396367   -0.05622856     0.0061430786   0.0021512173   0.013340401   -0.050650317    4688.8494      330228.97    
    564000   564            1.0038333     -0.019585536    16.633109      1.5057353      21.105777      18.138844     -4.4726679      2664.5035      49.877219      47.842376      47.842376     -0.034071449    0.032738595   -0.057423755   -0.016217677    0.016185161    0.0044460495   4722.9477      330237.88    
    568000   568            1.0036625      0.034724674    16.631461      1.5054791      21.104553      18.13694      -4.4730922      2879.4284      49.88692       47.814023      47.814023     -0.041261716    0.11048507     0.034950667   -0.031373119    0.032465288    0.030194323    4756.6894      330221.44    
    572000   572            0.99677764     0.031947816    16.629253      1.4951519      21.1081        18.124405     -4.4788472      4184.0957      49.896622      47.793756      47.793756      0.074243192    0.014409439    0.0071908159   0.025251158    0.051168608   -0.011283511    4790.4476      330205.89    
    576000   576            1.0002329      0.022590062    16.63588       1.5003347      21.109563      18.136215     -4.4736822      2993.9071      49.906324      47.824509      47.824509      0.039672269    0.018536981    0.0095609354  -0.009573631    0.0055751294  -0.041200265    4824.4087      330203.97    
    580000   580            0.99871527    -0.045436931    16.6386        1.4980583      21.107058      18.136659     -4.4684575      2968.4521      49.916026      47.854413      47.854413     -0.011188157   -0.077665156   -0.04745748    -0.019231501   -0.035794308    0.0038375403   4858.2207      330191.49    
    584000   584            0.99351127    -0.028541278    16.636943      1.4902524      21.105986      18.127195     -4.4690431      3959.0494      49.925728      47.847295      47.847295     -0.056370241   -0.031991873    0.0027382805  -0.028872154   -0.019950949    0.0074785941   4891.4123      330136.83    
    588000   588            0.99944686     0.044277056    16.633348      1.4991557      21.106584      18.132503     -4.4732366      3434.806       49.93543       47.80164       47.80164       0.023352043    0.062469542    0.047009584    0.018644841   -0.020373707    0.022630458    4924.3625      330066.28    
    592000   592            1.0032113      0.027947018    16.637385      1.5048022      21.111075      18.142188     -4.4736894      2462.4169      49.945132      47.800637      47.800637      0.070793795    0.052751229   -0.039703968    0.025287802   -0.044424211    0.0183235      4958.5462      330078.36    
    596000   596            1.0024713      0.020264316    16.631702      1.5036923      21.108314      18.135394     -4.4766127      3178.863       49.954833      47.779647      47.779647      0.0088165644   0.0045121338   0.047464249   -0.021420077    0.053462849   -0.021606352    4992.0646      330045.83    
    600000   600            1.0003741      0.024419704    16.632416      1.5005465      21.106102      18.132963     -4.473686       3448.373       49.964535      47.785526      47.785526      0.011732025    0.01812895     0.043398137   -0.012254531   -0.0081627677   0.043068692    5026.2372      330056.25    
    604000   604            0.99953144     0.014880219    16.632492      1.4992825      21.105256      18.131774     -4.4727642      3589.9582      49.974237      47.793378      47.793378      0.053012181    0.014835228   -0.023206754   -0.011220126   -0.0095346947  -0.030568958    5060.171       330050.49    
    608000   608            0.99659623    -0.02055503     16.625938      1.4948798      21.105382      18.120817     -4.4794445      4733.1713      49.983939      47.769984      47.769984     -0.045839665   -0.0048830641  -0.010942362    0.0096899906  -0.044346765    0.0077741916   5093.7645      330022.32    
    612000   612            0.99844532     0.0041568044   16.636798      1.4976534      21.108088      18.134451     -4.4712902      3356.0275      49.993641      47.796327      47.796327     -0.0018448956  -0.022343293    0.036658601    0.0057105958   0.004343315    0.00070993038  5126.6752      329950.14    
    616000   616            1.0003923     -0.031212185    16.635858      1.5005738      21.104011      18.136432     -4.4681533      3173.0297      50.003343      47.809587      47.809587     -0.071331746   -0.018018542   -0.0042862678  -0.0024130852   0.021463067    5.6999215e-05  5160.6852      329948.74    
    620000   620            0.99492912    -0.078964087    16.631407      1.4923791      21.107418      18.123786     -4.4760107      4489.2334      50.013045      47.792309      47.792309     -0.10125801    -0.023079426   -0.11255483     0.027041872    0.016628868    0.02241274     5194.2907      329921.24    
    624000   624            0.9953887     -0.05279005     16.638257      1.4930685      21.108346      18.131325     -4.4700889      3736.4535      50.022746      47.795663      47.795663     -0.0048212526  -0.091614494   -0.061934402    0.021499232   -0.0011895822   0.029409262    5228.4106      329926.11    
    628000   628            1.0013821      0.0055413357   16.636866      1.5020585      21.106526      18.138925     -4.4696598      2977.3896      50.032448      47.789136      47.789136     -0.0071013996   0.024594124   -0.00086871697  0.034608482    0.029319146    0.00121514     5261.1474      329843.78    
    632000   632            0.99764501    -0.040611776    16.634544      1.4964529      21.10544       18.130997     -4.4708953      3809.5033      50.04215       47.769485      47.769485     -0.046750015   -0.062562407   -0.012522906   -0.018574543   -0.034125056    0.00097364785  5294.7775      329817.72    
    636000   636            0.99088194    -0.0071002587   16.630704      1.4863084      21.106849      18.117012     -4.4761458      5263.2407      50.051852      47.756482      47.756482      0.050102507   -0.065323556   -0.0060797274   0.011918043    0.01095313     0.00036919213  5327.8767      329758.71    
    640000   640            0.99805041     0.029483002    16.630188      1.497061       21.108562      18.127249     -4.4783745      4233.6091      50.061554      47.737099      47.737099      0.075575999    0.0075872235   0.0052857833  -0.020447222   -8.3270212e-05  0.015176222    5361.7792      329749.42    
    644000   644            0.99940471     0.0011629932   16.639049      1.4990924      21.10772       18.138142     -4.4686703      3137.4229      50.071256      47.766249      47.766249     -0.04797583     0.038970919    0.012493891   -0.028800214    0.010645997   -0.0071693192   5395.8076      329747.52    
    648000   648            1.0019597      0.020178969    16.635523      1.5029249      21.10662       18.138448     -4.471097       3125.9934      50.080957      47.749145      47.749145      0.0056533144   0.0032529632   0.051630629    0.017641817   -0.012682933    0.033966189    5429.7817      329741.93    
    652000   652            0.9988591      0.064006527    16.627389      1.498274       21.105584      18.125663     -4.4781944      4456.3211      50.090659      47.7066        47.7066        0.054540791    0.091319069    0.04615972    -0.053967973   -0.013581122    0.014359122    5464.3663      329772.83    
    656000   656            0.99735703    -4.7960692e-05  16.636398      1.4960209      21.107098      18.132419     -4.4707004      3784.0661      50.100361      47.729461      47.729461      0.029030836   -0.038997444    0.0098227264  -0.039438059    0.024959724    0.0083971143   5497.9447      329742.58    
    660000   660            0.99956674    -0.026633069    16.637776      1.4993355      21.106337      18.137112     -4.4685609      3323.2416      50.110063      47.741374      47.741374     -0.04086291    -0.065555022    0.026518724   -0.057087791   -0.019897598   -0.015546654    5531.6726      329721.21    
    664000   664            1.0032608     -0.0011920126   16.634491      1.5048765      21.108699      18.139367     -4.4742079      3112.1424      50.119765      47.724466      47.724466     -0.032140951    0.0010026017   0.027562311   -0.0069273864  -0.0021354608   0.020724579    5566.1813      329745.94    
    668000   668            1.0010669     -0.0065022483   16.638764      1.5015857      21.104657      18.14035      -4.4658929      3031.6982      50.129467      47.744114      47.744114     -0.045139332    0.008191548    0.017441039    0.027601111    0.021563362    0.0026278282   5600.4726      329757.17    
    672000   672            1.0026322      0.040510361    16.627687      1.5039336      21.105824      18.13162      -4.4781367      3946.3689      50.139169      47.704584      47.704584      0.014947629    0.033744215    0.072839239   -0.0086542098   0.027395492   -0.0054042343   5634.1513      329732       
    676000   676            1.0004523      0.058994701    16.634637      1.5006638      21.109549      18.135301     -4.4749127      3589.3416      50.14887       47.691301      47.691301      0.092279658    0.073961077    0.010743368   -0.025667056   -0.0479967      0.02790985     5667.4226      329683.02    
    680000   680            1.0026177      0.020614713    16.642128      1.5039119      21.106883      18.14604      -4.4647546      2508.7076      50.158572      47.727185      47.727185      0.034556782    0.00042909291  0.026858263   -0.0016961184   0.0012119592   0.011878387    5700.8348      329642.39    
    684000   684            0.99838466     0.014305068    16.63712       1.4975624      21.109338      18.134683     -4.4722177      3692.9755      50.168274      47.68613       47.68613      -0.0004919472   0.03089533     0.012511821    0.017762234    0.015424815   -0.010214229    5734.3207      329606.07    
    688000   688            0.99871212    -8.7553546e-05  16.631821      1.4980536      21.105531      18.129874     -4.4737098      4205.6763      50.177976      47.692831      47.692831      0.028302356   -0.030174889    0.0016098715   0.027952887    0.03422515    -0.010960391    5768.0637      329584.48    
    692000   692            1.0011615      0.034682378    16.63367       1.5017276      21.106733      18.135398     -4.4730629      3659.5902      50.187678      47.685218      47.685218     -0.021040778    0.041041547    0.084046366    0.018946421   -0.029552454    0.0062172881   5801.5864      329550.23    
    696000   696            1.0020659     -0.034993883    16.636657      1.5030842      21.10634       18.139741     -4.4696829      3234.2991      50.19738       47.713515      47.713515     -0.092484141   -0.0035983074  -0.008899202   -0.021143434   -0.0038195008  -0.020720072    5835.6022      329543.83    
    700000   700            0.99069015     0.015304596    16.640673      1.4860207      21.104051      18.126694     -4.4633783      4591.491       50.207082      47.711747      47.711747      0.058459704   -0.063455032    0.050909117   -0.032460419   -0.0072357588  -0.016097975    5868.2725      329461.58    
    704000   704            0.99579084     0.024960699    16.637158      1.4936717      21.10769       18.13083      -4.4705318      4187.4979      50.216783      47.692109      47.692109      0.061650007    0.018410344   -0.0051782526   0.00036469454 -0.020011562   -0.05078557     5901.9652      329436.97    
    708000   708            1.0023333      0.040182968    16.637626      1.5034853      21.106898      18.141111     -4.4692723      3153.8473      50.226485      47.685314      47.685314      0.062823454    0.039740689    0.017984761    0.037940529   -0.021635643   -0.042211478    5935.8304      329421.82    
    712000   712            0.99839324     0.074911089    16.634032      1.4975753      21.108383      18.131608     -4.4743506      4147.7761      50.236187      47.648854      47.648854      0.034913951    0.082008323    0.10781099    -0.038842247    0.041978206    0.026820204    5969.4241      329391.48    
    716000   716            1.0000477     -0.0090100723   16.628717      1.500057       21.103655      18.128774     -4.4749381      4458.4486      50.245889      47.642165      47.642165     -0.038937484   -0.0048411552   0.016748422    0.0073049668  -0.059792859    0.023557406    6003.8824      329408.54    
    720000   720            0.99656718     0.057739264    16.640435      1.4948362      21.110921      18.135271     -4.4704856      3812.9572      50.255591      47.659432      47.659432      0.034723221    0.055313783    0.083180788   -0.027382046   -0.030236396    0.0049058271   6038.0289      329408.02    
    724000   724            1.0015298     -0.077207617    16.644846      1.5022801      21.110149      18.147126     -4.4653032      2617.7987      50.265293      47.693306      47.693306     -0.10940114    -0.066748953   -0.05547276    -0.035834953   -0.0086068734   0.035857067    6071.2772      329358.4     
    728000   728            1.0015561     -0.024904183    16.638941      1.5023195      21.111281      18.14126      -4.4723407      3239.1904      50.274995      47.669156      47.669156     -0.046866107   -0.014947675   -0.012898766    0.010873958   -0.024700317   -0.016248025    6104.5468      329310.11    
    732000   732            0.99876131    -0.07863324     16.631937      1.4981274      21.105157      18.130065     -4.4732198      4406.5648      50.284696      47.666602      47.666602     -0.11584923    -0.037380803   -0.08266969     0.05303567    -0.014421596   -0.0038673923   6138.144       329279.56    
    736000   736            0.99385325    -0.076837342    16.637059      1.4907653      21.106781      18.127824     -4.4697216      4656.0832      50.294398      47.665635      47.665635     -0.048058861   -0.099927107   -0.082526057    0.017607332    0.010293432    0.063528395    6171.9606      329260.68    
    740000   740            1.0005585     -0.065121296    16.639969      1.5008231      21.105356      18.140792     -4.4653871      3347.0725      50.3041        47.687261      47.687261     -0.10587632    -0.020326278   -0.069161292   -0.016196154   -0.017601076   -0.035803292    6205.1293      329207.27    
    744000   744            0.99457138    -0.029107654    16.64486       1.4918425      21.105868      18.136702     -4.4610079      3786.5497      50.313802      47.681276      47.681276     -0.036612449   -0.014105435   -0.036605079    0.00094194848  0.013702935    0.016368051    6238.5802      329168.96    
    748000   748            0.99713865     0.0037297311   16.639531      1.4956934      21.10913       18.135224     -4.4695993      3958.1906      50.323504      47.637013      47.637013     -0.020706342    0.03828786    -0.0063923241   0.0011223891  -0.024707551    0.01385233     6272.2437      329141.86    
    752000   752            1.0001644     -0.0045127833   16.636336      1.500232       21.108483      18.136568     -4.4721465      3840.6311      50.333206      47.61082       47.61082      -0.058115571   -0.012955844    0.057533065   -0.01270464     0.042585316    0.01458492     6306.5576      329148.64    
    756000   756            1.0017923     -0.009758766    16.64132       1.5026739      21.107005      18.143994     -4.465685       3099.1601      50.342907      47.649054      47.649054     -0.076733846    0.040511206    0.0069463421   0.0013288788  -0.052949474   -0.0097046697   6339.6821      329093.23    
    760000   760            0.99840963    -0.067736654    16.63543       1.4975998      21.107604      18.133029     -4.4721741      4242.926       50.352609      47.632589      47.632589     -0.066629789   -0.12045299    -0.016127179    0.027950793    0.034493402   -0.014244553    6373.1205      329054.28    
    764000   764            0.99690867    -0.014595605    16.635761      1.4953484      21.106331      18.131109     -4.4705701      4459.8457      50.362311      47.631023      47.631023     -0.080812095    0.014514454    0.022510827   -0.047662634    0.033373419    0.0035894286   6406.7358      329024.46    
    768000   768            1.0029809     -0.052745114    16.639678      1.5044567      21.109687      18.144134     -4.4700092      3144.9498      50.372013      47.639439      47.639439     -0.071865449   -0.073323968   -0.013045926   -0.044298641    0.0034490044   0.027064631    6440.1824      328985.98    
    772000   772            0.99508934    -0.035634097    16.639265      1.4926194      21.10824       18.131884     -4.4689754      4420.9029      50.381715      47.607349      47.607349     -0.056534341   -0.013235999   -0.03713195     0.0092271199   0.0059942318   0.019625718    6473.85        328958.79    
    776000   776            1.0001805      0.040060719    16.628507      1.5002561      21.10735       18.128763     -4.478843       4759.9778      50.391417      47.57159       47.57159       0.0097847624   0.065473369    0.044924025   -0.021122655    0.048443663    0.016024076    6507.7113      328941.33    
    780000   780            0.99998617     0.0011574594   16.641879      1.4999646      21.114142      18.141844     -4.472263       3439.4268      50.401119      47.585834      47.585834     -0.016541801   -0.01670907     0.03672325     0.011755089    0.047615229    0.040241326    6540.8327      328886.48    
    784000   784            1.0003682     -0.084188031    16.637103      1.5005376      21.106716      18.13764      -4.4696137      3890.3033      50.41082       47.597306      47.597306     -0.084257094   -0.087057201   -0.0812498     -0.0080577267  -0.0030632476  -0.012285343    6573.9445      328831.39    
    788000   788            0.99988035    -0.023377028    16.633458      1.4998059      21.107583      18.133264     -4.4741255      4358.6034      50.420522      47.578717      47.578717     -0.035318561   -0.020782277   -0.014030246    0.0002199461  -0.02333076     0.029022122    6606.7014      328758.85    
    792000   792            0.9956982     -0.052696013    16.633622      1.4935327      21.105298      18.127154     -4.4716762      5004.9909      50.430224      47.591637      47.591637     -0.13060988    -0.07039555     0.042917394   -0.0012625289  -0.0055435857   0.023324947    6639.9346      328710.3     
    796000   796            0.99721235     0.033685469    16.638066      1.4958039      21.109065      18.13387      -4.4709988      4336.8144      50.439926      47.577263      47.577263      0.064448257   -0.0398507      0.076458851   -0.0090021158   0.013633597    0.024617995    6672.5025      328629.13    
    800000   800            1.0040948     -0.0020722496   16.63506       1.5061276      21.104702      18.141188     -4.4696414      3606.5437      50.449628      47.600093      47.600093     -0.020116398    0.0073232018   0.0065764479  -0.0055299699   0.027168549   -0.0077073583   6705.373       328563.28    
    804000   804            0.99870747    -0.029647122    16.639434      1.4980466      21.105038      18.13748      -4.4656044      4006.6948      50.45933       47.602054      47.602054     -0.056035739   -0.0049947609  -0.027910867   -0.019226643    0.015065702   -0.017711762    6738.0769      328489.63    
    808000   808            0.9972857     -0.027382881    16.632344      1.495914       21.103679      18.128258     -4.4713351      4972.0251      50.469032      47.579573      47.579573      0.025095062   -0.02077778    -0.086465926   -0.0066643013  -0.027828794    0.010100907    6770.7834      328416.52    
    812000   812            0.99820456    -0.012247186    16.641062      1.4972922      21.104679      18.138354     -4.4636176      3957.3336      50.478733      47.591987      47.591987      0.036706299   -0.0098073006  -0.063640556    0.058657497   -0.012631105    0.0070786127   6803.3319      328336.17    
    816000   816            0.99693662     0.0093817572   16.64328       1.4953903      21.10829       18.138671     -4.4650097      3944.441       50.488435      47.579708      47.579708     -0.046774091    0.03782178     0.037097582   -0.024530677    0.042111632   -0.033534015    6836.6588      328293.68    
    820000   820            0.99970623     0.058461027    16.635197      1.4995447      21.106208      18.134742     -4.4710112      4366.9897      50.498137      47.551968      47.551968      0.00036430326  0.052441568    0.12257721     0.055577412   -0.031372798    0.033643722    6869.2437      328215.81    
    824000   824            0.99801417     0.037511834    16.624393      1.4970066      21.105236      18.121399     -4.4808427      5754.2362      50.507839      47.521548      47.521548      0.04215963     0.01808155     0.05229432    -0.025113537   -0.0030679978  -0.036385526    6901.5877      328126.94    
    828000   828            0.99967167     0.0093111824   16.633981      1.4994929      21.107254      18.133474     -4.4732723      4536.7209      50.517541      47.522851      47.522851     -0.0091482506   0.031182402    0.0058993963   0.0018900335   0.061857374   -0.020161307    6935.1456      328096.04    
    832000   832            1.0009912      0.0067614764   16.637827      1.5014721      21.111684      18.139299     -4.4738574      3959.6923      50.527243      47.540399      47.540399      0.0014400174   0.031008247   -0.012163835   -0.0014782365  -0.032899836    0.051034684    6967.2518      327996.78    
    836000   836            1.000569      -0.010245854    16.632016      1.5008389      21.104758      18.132854     -4.4727427      4640.484       50.536944      47.533182      47.533182     -0.02914363     0.0040937359  -0.0056876684   0.032132937   -0.039005161    0.011078509    6999.0136      327882.02    
    840000   840            1.0021384     -0.01950172     16.628315      1.503193       21.104003      18.131508     -4.4756873      4798.3717      50.546646      47.520743      47.520743     -0.0088666822  -0.0010876059  -0.048550873    0.017743165   -0.045274088    0.035038009    7031.6362      327808.18    
    844000   844            1.0005612     -0.014819664    16.639519      1.5008271      21.107811      18.140346     -4.4682915      3912.688       50.556348      47.534624      47.534624     -0.064104676   -0.021676249    0.041321933    0.013032456   -0.011718613   -0.027760439    7064.1767      327730.93    
    848000   848            0.99830777     0.015258755    16.639652      1.497447       21.107083      18.137099     -4.4674318      4265.6511      50.56605       47.531383      47.531383     -0.0036291471   0.02667258     0.022732833    0.033109796    0.016549206   -0.044825209    7096.6859      327652.65    
    852000   852            0.99771758     0.041386069    16.636076      1.4965618      21.108171      18.132638     -4.4720953      4742.3383      50.575752      47.506445      47.506445      0.022162553    0.070174796    0.031820859    0.044909317   -0.0059842015   0.037377815    7128.4448      327540.33    
    856000   856            0.99055572     0.026567879    16.635099      1.4858191      21.108163      18.120918     -4.4730638      5963.6115      50.585454      47.485956      47.485956      0.057831837    0.035598564   -0.013726765   -0.05881578    -0.011736093    0.051850767    7160.7984      327455.95    
    860000   860            1.0002565     -0.062069581    16.632976      1.5003701      21.106678      18.133346     -4.4737021      4709.1798      50.595156      47.511124      47.511124     -0.081214088   -0.077249236   -0.027745418    0.013366061    0.0074943904  -0.038042582    7193.5581      327390.54    
    864000   864            1.0005739      0.0036668954   16.638667      1.5008462      21.103973      18.139513     -4.4653065      4097.1664      50.604857      47.538509      47.538509     -0.0040234321   0.00017565511  0.014848463   -0.05026053     0.02906319    -0.0051253687   7226.5133      327334.29    
    868000   868            1.0026288     -0.040699109    16.641188      1.5039285      21.107466      18.145116     -4.4662785      3543.4203      50.614559      47.534365      47.534365     -0.085501026    0.0022278911  -0.038824191    0.033933268    0.020500478   -0.021702753    7258.7132      327244.2     
    872000   872            0.99741737     0.026607501    16.635736      1.4961115      21.10518       18.131848     -4.4694443      4923.4788      50.624261      47.503777      47.503777      0.04787437     0.032162761   -0.00021462731  0.018801774    0.038172143   -0.012981088    7291.3726      327175.26    
    876000   876            1.0008511     -0.022222756    16.639467      1.501262       21.107957      18.140729     -4.4684903      4033.1755      50.633963      47.515986      47.515986     -0.043796059   -0.012348135   -0.010524073    0.021637777    0.050400628    0.031247641    7323.7076      327092.17    
    880000   880            1.0006498     -0.016710385    16.642164      1.50096        21.109265      18.143124     -4.4671004      3807.5377      50.643665      47.495604      47.495604      0.0010646878   0.0038795515  -0.055075393   -0.017597217   -0.0051735006   0.018743564    7356.9281      327048.89    
    884000   884            0.99730747     0.029132183    16.631334      1.4959466      21.107061      18.127281     -4.4757268      5450.8166      50.653367      47.472718      47.472718     -0.0021683881   0.052710237    0.036854701    0.0086717871  -0.012242987   -0.0079521267   7389.4561      326975.07    
    888000   888            1.0038116      0.080926844    16.633673      1.5057027      21.106607      18.139375     -4.4729342      4231.2213      50.663069      47.458809      47.458809      0.065746432    0.128642       0.048392099   -0.018501182   -0.028706209   -0.011760889    7421.5124      326880.85    
    892000   892            1.0013243     -0.045731643    16.634732      1.5019718      21.109352      18.136704     -4.4746194      4524.7415      50.67277       47.47115       47.47115      -0.063888753   -0.069988147   -0.0033180306  -0.011102985   -0.010175416   -0.018600699    7453.6417      326790.38    
    896000   896            0.9982041      0.044591057    16.625091      1.4972915      21.107236      18.122383     -4.4821448      6012.271       50.682472      47.414748      47.414748      0.030151514    0.058707249    0.044914408    0.066831143    0.014963272   -0.023151907    7486.7962      326745.18    
[...]
  39768000   39768          1.0009263     -0.093344763    16.647646      1.5013747      21.107355      18.149021     -4.4597083      125081.98      144.96507      28.107671      28.107671     -0.30726633     0.0019313775   0.02530066    -0.026087304   -0.021972727    0.038445705    354383.1       2067.413     
  39772000   39772          0.99804471    -0.072671057    16.653024      1.4970525      21.109544      18.150076     -4.4565202      124983.84      144.97477      28.114591      28.114591     -0.26709779     0.043413073    0.0056715485   0.0016498275   0.0022277538   0.023119442    354421.38      2031.7831    
  39776000   39776          0.99792451    -0.12613826     16.643486      1.4968722      21.107321      18.140358     -4.4638346      125988.97      144.98447      28.094252      28.094252     -0.31247168    -0.041273864   -0.02466923    -0.013473226   -0.012550384    0.0058499999   354459.43      1996.1513    
  39780000   39780          1.0013452     -0.099218342    16.640671      1.5020031      21.105936      18.142674     -4.4652644      125761.07      144.99417      28.093174      28.093174     -0.33709152     0.047010579   -0.0075740862  -0.0034081308   0.023249915   -0.008231477    354497.31      1960.518     
  39784000   39784          1.0033355     -0.17495531     16.647861      1.5049886      21.107476      18.15285      -4.459615       124727.63      145.00387      28.102287      28.102287     -0.41850537    -0.070404278   -0.03595629    -0.02114201     0.0081226294  -0.049931857    354536.2       1924.8899    
  39788000   39788          1.0023762     -0.12763633     16.652313      1.5035497      21.108139      18.155862     -4.4558265      124428.79      145.01357      28.107191      28.107191     -0.35820198     0.0074944709  -0.032201479    0.0078059268   0.0088275824   0.046204803    354573.89      1889.2547    
  39792000   39792          1.0039289     -0.11863322     16.639031      1.5058786      21.109726      18.144909     -4.4706956      125560.62      145.02328      28.076969      28.076969     -0.37504273     0.045356161   -0.02621309     0.024648777   -0.045101573   -0.01295117     354612.61      1853.6244    
  39796000   39796          0.99785943    -0.071898388    16.646465      1.4967745      21.104821      18.143239     -4.4583564      125741.43      145.03298      28.09157       28.09157      -0.29235574     0.067832534    0.008828044   -0.00054930602 -0.0044948631   0.010845567    354650.87      1817.9912    
  39800000   39800          1.0024666     -0.15647497     16.646315      1.5036853      21.106211      18.15         -4.4598954      125058.1       145.04268      28.09208       28.09208      -0.40231079    -0.031187015   -0.03592709     0.02349582    -0.011357079   -0.027400146    354688.69      1782.3552    
  39804000   39804          0.9988648     -0.11509727     16.649036      1.4982826      21.109526      18.147319     -4.4604896      125342.69      145.05238      28.084093      28.084093     -0.41512236     0.048439348    0.021391206   -0.029656357   -0.0012890859   0.014528103    354727.3       1746.7227    
  39808000   39808          0.99547444    -0.12646142     16.642507      1.4931971      21.104517      18.135704     -4.4620096      126542.23      145.06208      28.087212      28.087212     -0.37983947     0.016218055   -0.015762856    0.040474254    0.017727654   -0.045557958    354765.18      1711.0861    
  39812000   39812          0.99589431    -0.09399342     16.639544      1.4938269      21.105015      18.133371     -4.4654706      126791.14      145.07179      28.081085      28.081085     -0.31520814     0.026880438    0.0063474437  -0.0069763866  -0.010838663    0.034831113    354803.7       1675.452     
  39816000   39816          1.0042956     -0.087075862    16.642095      1.5064287      21.109168      18.148523     -4.4670737      125247.66      145.08149      28.076513      28.076513     -0.25247791     0.038023825   -0.046773497    0.0025043743   0.013002683   -0.032852123    354842.37      1639.8181    
  39820000   39820          1.0040731     -0.088959587    16.645324      1.506095       21.106518      18.151419     -4.4611942      124960.53      145.09119      28.068626      28.068626     -0.33803148    -0.02055578     0.091708497    0.019116838    0.013394518    0.064528885    354880.4       1604.1806    
  39824000   39824          1.0014581     -0.10150139     16.640249      1.5021725      21.107261      18.142422     -4.467012       125892.53      145.10089      28.067311      28.067311     -0.30651112    -0.0049794227   0.0069863772  -0.026788907   -0.00053279764  0.023007604    354918.92      1568.5449    
  39828000   39828          0.9980797     -0.070665404    16.639558      1.4971049      21.109491      18.136663     -4.4699329      126492.19      145.11059      28.060194      28.060194     -0.32779808     0.046556245    0.06924562    -0.068048952   -0.011000905    0.012641905    354956.77      1532.9056    
  39832000   39832          0.99969174    -0.14193468     16.650507      1.499523       21.108556      18.15003      -4.458049       125131.72      145.12029      28.091998      28.091998     -0.42391697    -0.0095448442   0.0076577836  -0.011468086    0.027994855   -0.0093541796   354995.22      1497.2684    
  39836000   39836          1.002841      -0.083569567    16.643703      1.5042469      21.10868       18.14795      -4.4649776      125354.4       145.13         28.069641      28.069641     -0.29093214    -0.0019300143   0.042153448    0.0074769824  -0.027721486   -0.048878737    355033.78      1461.6312    
  39840000   39840          0.99873658    -0.10250409     16.643972      1.4980903      21.108899      18.142062     -4.4649271      125967.26      145.1397       28.073164      28.073164     -0.34660467     0.037217119    0.0018752713  -0.013307309   -0.030666231    0.027853104    355072.46      1425.9938    
  39844000   39844          1.0041115     -0.16859629     16.649867      1.5061525      21.109895      18.156019     -4.4600282      124546.34      145.1494       28.084952      28.084952     -0.46533186    -0.0091426375  -0.031314366    0.0047055377   0.0087605521  -0.020927428    355110.26      1390.3524    
  39848000   39848          1.0025945     -0.12969688     16.645924      1.503877       21.108578      18.149801     -4.4626537      125193.39      145.1591       28.063251      28.063251     -0.34135207    -0.037094947   -0.010643628    0.014451812    0.0505099      0.00099802686  355149.09      1354.7144    
  39852000   39852          1.0020065     -0.06303104     16.64572       1.502995       21.108009      18.148715     -4.4622897      125314.26      145.1688       28.064406      28.064406     -0.28815997     0.041975611    0.057091244    0.022387508    0.0020530237   0.0045336584   355186.8       1319.0717    
  39856000   39856          1.0028496     -0.069609775    16.646749      1.5042597      21.108844      18.151009     -4.4620946      125088.83      145.17851      28.061857      28.061857     -0.33602956     0.083171362    0.044028868    0.013121513    0.048378684   -0.028462748    355224.81      1283.4297    
  39860000   39860          1.0021169     -0.13466842     16.646038      1.5031606      21.103771      18.149199     -4.4577326      125283.89      145.18821      28.079173      28.079173     -0.36314422     0.007423664   -0.048284704    0.020860688    0.01515598     0.0058873673   355263.82      1247.7906    
  39864000   39864          1.0000338     -0.11879438     16.637638      1.5000361      21.108239      18.137674     -4.4706006      126474.72      145.19791      28.061964      28.061964     -0.32837808    -0.040742806    0.012737736   -0.011103341   -0.0071757893   0.020516276    355301.96      1212.148     
  39868000   39868          1.0002819     -0.14630219     16.649038      1.5004082      21.109581      18.149447     -4.4605429      125277.62      145.20761      28.080595      28.080595     -0.39825968    -0.024335235   -0.016311648   -0.0029370169  -0.020866746    0.027290828    355341.06      1176.508     
  39872000   39872          1.0008216     -0.12671072     16.649145      1.5012178      21.10701       18.150363     -4.4578653      125193.2       145.21731      28.082573      28.082573     -0.349594      -0.0098067971  -0.020731346    0.01494074    -0.025569898   -0.0067650532   355380.02      1140.8668    
  39876000   39876          1.0011226     -0.11285864     16.637444      1.5016692      21.104554      18.139114     -4.4671094      126355.52      145.22702      28.05555       28.05555      -0.34626967    -0.023773277    0.031467032   -0.021550892    0.0036156004   0.0040972664   355418.47      1105.2234    
  39880000   39880          0.99935153    -0.063029952    16.645096      1.4990127      21.109914      18.144109     -4.4648178      125853.28      145.23672      28.059817      28.059817     -0.3353397      0.11201023     0.034239616   -0.010493818    0.031194014    0.042795109    355457.04      1069.5799    
  39884000   39884          1.0063312     -0.092084119    16.642668      1.5094821      21.107682      18.15215      -4.4650137      125038.43      145.24642      28.061367      28.061367     -0.32145589     0.041592783    0.0036107498   0.052674818   -0.022681633    0.0012340471   355495.57      1033.9356    
  39888000   39888          1.0012893     -0.10658049     16.639744      1.5019193      21.109538      18.141664     -4.469794       126122.52      145.25612      28.049091      28.049091     -0.35009352    -0.0066909582   0.037043017   -0.014567588   -0.063393013   -0.0022550012   355533.68      998.28952    
  39892000   39892          1.0004341     -0.058894536    16.638822      1.5006364      21.109046      18.139458     -4.4702248      126358.44      145.26582      28.046958      28.046958     -0.31898897     0.035063196    0.10724216    -0.023066188    0.04223772    -0.043179893    355572.63      962.64525    
  39896000   39896          1.0021803     -0.15693694     16.641463      1.5032558      21.107361      18.144719     -4.4658984      125828.72      145.27552      28.064007      28.064007     -0.4044284     -0.019994431   -0.046387993   -0.0087839557   0.016207106   -0.013197504    355611.12      926.99911    
  39900000   39900          0.99708104    -0.14703749     16.646042      1.495607       21.11038       18.141649     -4.4643385      126152.89      145.28523      28.061447      28.061447     -0.3635206     -0.041070175   -0.036521701   -0.0084537625   0.014225115    0.012070616    355648.84      891.35047    
  39904000   39904          0.99979843    -0.11827645     16.643703      1.499683       21.107721      18.143386     -4.4640181      125984.35      145.29493      28.059236      28.059236     -0.29968995    -0.043947161   -0.011192224    0.019226525    0.0066615172  -0.022152455    355687.49      855.70366    
  39908000   39908          1.0021066     -0.099751834    16.649141      1.5031452      21.110248      18.152286     -4.4611074      125081.82      145.30463      28.066506      28.066506     -0.36614935     0.021898738    0.044995114    0.025581432    0.0435711      0.041613       355725.65      820.05513    
  39912000   39912          1.0012947     -0.098162695    16.637145      1.5019275      21.104262      18.139072     -4.4671176      126445.59      145.31433      28.050838      28.050838     -0.30156652    -0.03403393     0.041112364    0.011687908   -0.021382255   -0.050664072    355764.04      784.40659    
  39916000   39916          0.99928689    -0.09524643     16.643878      1.4989157      21.106252      18.142793     -4.4623742      126073.59      145.32403      28.049872      28.049872     -0.33286817     0.0099063114   0.037222567   -0.056411287    0.0037247943  -0.0015729263   355802.27      748.75716    
  39920000   39920          1.0047393     -0.11956921     16.640926      1.5070943      21.105091      18.14802      -4.4641653      125547.37      145.33374      28.04967       28.04967      -0.3879849      0.020371643    0.0089056204  -0.032704249    0.0077050313  -0.00019182295  355840.23      713.10668    
  39924000   39924          1.001823      -0.066606009    16.640258      1.5027198      21.108373      18.142978     -4.4681145      126073.95      145.34344      28.042336      28.042336     -0.312487       0.069953862    0.042715111   -0.00014252312  0.010969263   -0.006445134    355879.25      677.45775    
  39928000   39928          1.0033125     -0.13230036     16.631372      1.504954       21.106672      18.136326     -4.4753         126765.34      145.35314      28.038157      28.038157     -0.37939945     0.013774629   -0.031276275   -0.022310366   -0.008597484   -0.023248967    355918.05      641.80774    
  39932000   39932          1.0029313     -0.14867992     16.64606       1.5043822      21.108155      18.150443     -4.4620942      125328         145.36284      28.063226      28.063226     -0.3764696      0.032547625   -0.10211777    -0.022129727    0.010395346   -0.0072306331   355956.5       606.15652    
  39936000   39936          0.99983641    -0.13212675     16.649907      1.49974        21.108527      18.149647     -4.4586199      125419.08      145.37254      28.072863      28.072863     -0.42624254     0.010278733    0.019583548   -0.082963581    0.019295898    0.03427247     355994.8       570.50448    
  39940000   39940          1.0006892     -0.043129055    16.634687      1.5010192      21.104964      18.135706     -4.470277       126857.14      145.38224      28.035585      28.035585     -0.24009146     0.062086116    0.048618178    0.027856339   -0.019521179   -0.0020714045   356033.49      534.85251    
  39944000   39944          0.99803096    -0.10127556     16.645243      1.4970318      21.109842      18.142274     -4.4645997      126193.73      145.39195      28.038609      28.038609     -0.37673382     0.033726688    0.039180462    0.030990208   -0.02931224    -0.011808722    356071.51      499.199      
  39948000   39948          1.0002807     -0.16687085     16.645583      1.5004065      21.11029       18.14599      -4.464707       125822.49      145.40165      28.062589      28.062589     -0.36006228    -0.15109845     0.010548178    0.0078136552  -0.011551365    0.031210373    356110.03      463.54565    
  39952000   39952          1.0000084     -0.13929303     16.653956      1.4999979      21.11173       18.153954     -4.4577737      125016.03      145.41135      28.069312      28.069312     -0.29509213    -0.10254315    -0.020243814    0.022735677   -0.016594756    0.028682247    356148.76      427.89198    
  39956000   39956          1.0036702     -0.13425247     16.645206      1.5054906      21.10915       18.150697     -4.4639438      125359.3       145.42105      28.053787      28.053787     -0.32601715    -0.062962951   -0.013777299    0.027026648   -0.011439982   -0.0069472658   356188.14      392.23842    
  39960000   39960          1.0007725     -0.13319063     16.640311      1.5011441      21.107594      18.141455     -4.4672828      126316.29      145.43075      28.038768      28.038768     -0.38149825    -0.0013933917  -0.016680246    0.01397053    -0.0062785222   0.00019127241  356227.08      356.58366    
  39964000   39964          0.99957336    -0.13117        16.64929       1.4993454      21.111355      18.148635     -4.4620652      125590.13      145.44046      28.055091      28.055091     -0.35648118    -0.0421609      0.0051320907   0.011992632    0.0054711418   0.020312787    356265.65      320.92792    
  39968000   39968          1.0008768     -0.13692639     16.649267      1.5013005      21.106433      18.150568     -4.4571652      125401.58      145.45016      28.067124      28.067124     -0.40935704     0.030015039   -0.031437174    0.0020251028   0.018108543    0.0037304194   356304.45      285.27178    
  39972000   39972          0.99448978    -0.15403235     16.64609       1.4917201      21.104828      18.13781      -4.4587383      126718.83      145.45986      28.055765      28.055765     -0.44721368    -0.057855084    0.042971716   -0.018546663   -0.0087558607   0.0032460178   356342.77      249.61467    
  39976000   39976          1.0011027     -0.10157636     16.63785       1.5016394      21.107271      18.139489     -4.4694215      126556.2       145.46956      28.027282      28.027282     -0.37903561     0.0752472     -0.00094065545 -0.0042474989   0.056869872    0.014901351    356381.02      213.95698    
  39980000   39980          0.99978343    -0.12065436     16.656178      1.4996605      21.111302      18.155838     -4.455124       124890.43      145.47926      28.064355      28.064355     -0.37667563     0.027862839   -0.013150278    0.012814926   -0.012899893   -0.020663627    356419.2       178.29875    
  39984000   39984          1.0047369     -0.14167363     16.642017      1.5070907      21.10555       18.149108     -4.4635325      125589.47      145.48897      28.043866      28.043866     -0.38657682    -0.046575098    0.0081310106   0.040756087    0.038153063   -0.012857783    356457.75      142.64016    
  39988000   39988          0.99894186    -0.14942645     16.64607       1.4983982      21.109373      18.144468     -4.4633035      126074.97      145.49867      28.037438      28.037438     -0.43024629    -0.014613872   -0.0034192023  -0.02417919    -0.0065499258   0.020836578    356496.1       106.98092    
  39992000   39992          1.0047336     -0.061066832    16.645847      1.5070858      21.108763      18.152933     -4.4629159      125216.84      145.50837      28.030833      28.030833     -0.3004019      0.093083115    0.024118284    0.01339281    -0.018371515    0.0031475273   356534.77      71.321218    
  39996000   39996          1.0003378     -0.084520313    16.650755      1.500492       21.112787      18.151247     -4.4620319      125399.4       145.51807      28.036819      28.036819     -0.348041       0.074677641    0.019802418    0.005803976   -0.026893414    0.015666387    356572.86      35.660853    
  40000000   40000          0.99948732    -0.11407681     16.643891      1.4992163      21.112091      18.143107     -4.4681998      126243.17      145.52777      28.026677      28.026677     -0.40107484     0.028944274    0.029900129    0.0030297624   0.037043953   -0.0035148969   356611.09      0            
Loop time of 356611 on 18 procs for 40000000 steps with 102500 atoms

Performance: 9691.230 tau/day, 112.167 timesteps/s
98.0% CPU use with 18 MPI tasks x 1 OpenMP threads

MPI task timing breakdown:
Section |  min time  |  avg time  |  max time  |%varavg| %total
---------------------------------------------------------------
Pair    | 2.2231e+05 | 2.2798e+05 | 2.3542e+05 | 818.8 | 63.93
Bond    | 12030      | 12556      | 14285      | 561.9 |  3.52
Neigh   | 12773      | 12802      | 12840      |  17.1 |  3.59
Comm    | 38588      | 50279      | 54205      |1855.3 | 14.10
Output  | 942.04     | 942.07     | 942.09     |   0.1 |  0.26
Modify  | 47018      | 49579      | 52038      | 866.1 | 13.90
Other   |            | 2471       |            |       |  0.69

Nlocal:        5694.44 ave        5745 max        5646 min
Histogram: 3 1 0 1 2 4 4 1 0 2
Nghost:        9994.89 ave       10047 max        9920 min
Histogram: 1 1 1 2 2 2 1 3 3 2
Neighs:         224883 ave      230499 max      218552 min
Histogram: 1 2 1 1 2 4 2 2 2 1

Total # of neighbors = 4047890
Ave neighs/atom = 39.49161
Ave special neighs/atom = 6.6262829
Neighbor list builds = 1331908
Dangerous builds = 0

# GENERATION RESTART
write_restart ./out.deform.restart
System init for write_restart ...
Generated 0 of 36 mixed pair_coeff terms from geometric mixing rule
write_data    ./out.deform.data pair ij
System init for write_data ...
Generated 0 of 36 mixed pair_coeff terms from geometric mixing rule
Total wall time: 99:03:32
