LAMMPS (15 Sep 2022)
OMP_NUM_THREADS environment is not set. Defaulting to 1 thread. (src/comm.cpp:98)
  using 1 OpenMP thread(s) per MPI task
# LAMMPS Script for deform
# Generated 12/17/2022

# INIT PARAMS & READ CONF
include   "/work_bgfs/h/harshad/simulation_9/neat_polymer/config_3/system.init"
# UNITS
units		lj
dimension	3
atom_style	bond

# INPUT FILE
pair_style	lj/cut 2.5
bond_style	fene
read_data /work_bgfs/h/harshad/simulation_9/neat_polymer/config_3/quiescent/thermal_replicates/5.npt.data
Reading data file ...
  orthogonal box = (-24.253316 -24.253316 -24.253316) to (24.253316 24.253316 24.253316)
  2 by 3 by 3 MPI processor grid
  reading atoms ...
  102500 atoms
  reading velocities ...
  102500 velocities
  scanning bonds ...
  2 = max bonds/atom
  reading bonds ...
  104500 bonds
Finding 1-2 1-3 1-4 neighbors ...
  special bond factors lj:    0        0        0       
  special bond factors coul:  0        0        0       
     4 = max # of 1-2 neighbors
     4 = max # of 1-3 neighbors
     8 = max # of 1-4 neighbors
    12 = max # of special neighbors
  special bonds CPU = 0.005 seconds
  read_data CPU = 1.088 seconds
include   "/work_bgfs/h/harshad/simulation_9/neat_polymer/config_3/system.settings"
# ATOM TYPE
mass  1  1.0 #backbone
mass  2  1.0 #endmer
mass  3  1.0 #crosslinker
mass  4  1.0 #outer shell
mass  5  1.0 #inner shell 2
mass  6  1.0 #inner-most shell
mass  7  1.0 #center bead
mass  8  1.0 #endmer post crosslinking
mass  9  1.0 #crosslinker post crosslinking

# BOND
bond_coeff * 30.0 1.50 1.0 1.0
special_bonds lj 0.0 1.0 1.0
Finding 1-2 1-3 1-4 neighbors ...
  special bond factors lj:    0        1        1       
  special bond factors coul:  0        0        0       
     4 = max # of 1-2 neighbors
     4 = max # of 1-3 neighbors
     8 = max # of 1-4 neighbors
    12 = max # of special neighbors
  special bonds CPU = 0.003 seconds

# PAIR
pair_coeff  1*9 1*9 1.0 1.0 2.5

pair_modify  shift yes
neigh_modify delay 1 check yes

# MAKE GROUPS
group polymer type 1 2 3 8 9
102500 atoms in group polymer
#group ins     type 1
#group strand  type 1 2 8
#group ends    type 2 8
#group xlinks  type 3 9
#group filler  type 4 5 6 7

# INPUTS FROM SBATCH
variable Temp          equal 1.0
variable gamma_total   equal 2.0
variable gamma_rate    equal 0.00005
variable dt            equal 0.001
variable Nfreq         equal 4000
variable Nrepeat_2     equal 100
variable Nevery_1      equal 1
variable Nrepeat_1     equal 1

variable Run           equal ${gamma_total}/${gamma_rate}/${dt}
variable Run           equal 2/${gamma_rate}/${dt}
variable Run           equal 2/5e-05/${dt}
variable Run           equal 2/5e-05/0.001

# RUN OPTIONS
run_style verlet
timestep  ${dt}
timestep  0.001

# RESTART
restart  ${Nfreq} cycle.1.restart cycle.2.restart
restart  4000 cycle.1.restart cycle.2.restart

## SAVE RESTARTS EVERY 10% EXTENSION
#variable RestFreq      equal 0.1/${gamma_rate}/${dt}
#restart  ${RestFreq} deform.*.restart
#
# COMPUTE ke/atom, pe/atom, pxx/atom, position and time-avg
compute     ke_atm          all     ke/atom
compute     p_atm           all     stress/atom NULL
compute     pe_atm          all     pe/atom
compute     ebond_atm       all     pe/atom bond
compute     posit_atm       all     property/atom x y z
fix         avg_ke_atm_1    all     ave/atom ${Nevery_1} ${Nrepeat_1} ${Nfreq} c_ke_atm
fix         avg_ke_atm_1    all     ave/atom 1 ${Nrepeat_1} ${Nfreq} c_ke_atm
fix         avg_ke_atm_1    all     ave/atom 1 1 ${Nfreq} c_ke_atm
fix         avg_ke_atm_1    all     ave/atom 1 1 4000 c_ke_atm
fix         avg_pxx_atm_1   all     ave/atom ${Nevery_1} ${Nrepeat_1} ${Nfreq} c_p_atm[*]
fix         avg_pxx_atm_1   all     ave/atom 1 ${Nrepeat_1} ${Nfreq} c_p_atm[*]
fix         avg_pxx_atm_1   all     ave/atom 1 1 ${Nfreq} c_p_atm[*]
fix         avg_pxx_atm_1   all     ave/atom 1 1 4000 c_p_atm[*]
fix         avg_pe_atm_1    all     ave/atom ${Nevery_1} ${Nrepeat_1} ${Nfreq} c_pe_atm
fix         avg_pe_atm_1    all     ave/atom 1 ${Nrepeat_1} ${Nfreq} c_pe_atm
fix         avg_pe_atm_1    all     ave/atom 1 1 ${Nfreq} c_pe_atm
fix         avg_pe_atm_1    all     ave/atom 1 1 4000 c_pe_atm
#fix         avg_posit_atm_1 all     ave/atom ${Nevery_1} ${Nrepeat_1} ${Nfreq} c_posit_atm[1] c_posit_atm[2] c_posit_atm[3]
dump        dump_1 all custom ${Nfreq} ${out_dir}traj.${Nevery_1}_${Nrepeat_1}_${Nfreq}.xyz mol type x y z f_avg_ke_atm_1 f_avg_pe_atm_1 f_avg_pxx_atm_1[*]
dump        dump_1 all custom 4000 ${out_dir}traj.${Nevery_1}_${Nrepeat_1}_${Nfreq}.xyz mol type x y z f_avg_ke_atm_1 f_avg_pe_atm_1 f_avg_pxx_atm_1[*]
dump        dump_1 all custom 4000 /shares_bgfs/dssimmons_data/harshad/deform/neat_polymer/config_3/5_deformwork_bgfs--h--harshad--simulation_9--neat_polymer--config_3--5_deform--traj.${Nevery_1}_${Nrepeat_1}_${Nfreq}.xyz mol type x y z f_avg_ke_atm_1 f_avg_pe_atm_1 f_avg_pxx_atm_1[*]
dump        dump_1 all custom 4000 /shares_bgfs/dssimmons_data/harshad/deform/neat_polymer/config_3/5_deformwork_bgfs--h--harshad--simulation_9--neat_polymer--config_3--5_deform--traj.1_${Nrepeat_1}_${Nfreq}.xyz mol type x y z f_avg_ke_atm_1 f_avg_pe_atm_1 f_avg_pxx_atm_1[*]
dump        dump_1 all custom 4000 /shares_bgfs/dssimmons_data/harshad/deform/neat_polymer/config_3/5_deformwork_bgfs--h--harshad--simulation_9--neat_polymer--config_3--5_deform--traj.1_1_${Nfreq}.xyz mol type x y z f_avg_ke_atm_1 f_avg_pe_atm_1 f_avg_pxx_atm_1[*]
dump        dump_1 all custom 4000 /shares_bgfs/dssimmons_data/harshad/deform/neat_polymer/config_3/5_deformwork_bgfs--h--harshad--simulation_9--neat_polymer--config_3--5_deform--traj.1_1_4000.xyz mol type x y z f_avg_ke_atm_1 f_avg_pe_atm_1 f_avg_pxx_atm_1[*]
dump_modify dump_1 append yes sort id

# COMPUTE a separate pe and ke for each group, AVG & SAVE
compute   pe_polymer    all reduce  sum c_pe_atm
compute   ke_polymer    all reduce  sum c_ke_atm
compute   ebond_polymer all reduce  sum c_ebond_atm
compute   pxx_polymer   all reduce  sum c_p_atm[1] c_p_atm[2] c_p_atm[3]
compute   pxy_polymer   all reduce  sum c_p_atm[4] c_p_atm[5] c_p_atm[6]
fix 		  avgEnergy     all     ave/time ${Nevery_1} ${Nrepeat_2} ${Nfreq} c_pe_polymer c_ke_polymer c_ebond_polymer c_pxy_polymer[1] c_pxy_polymer[2] c_pxy_polymer[3] file energy.avg.csv
fix 		  avgEnergy     all     ave/time 1 ${Nrepeat_2} ${Nfreq} c_pe_polymer c_ke_polymer c_ebond_polymer c_pxy_polymer[1] c_pxy_polymer[2] c_pxy_polymer[3] file energy.avg.csv
fix 		  avgEnergy     all     ave/time 1 100 ${Nfreq} c_pe_polymer c_ke_polymer c_ebond_polymer c_pxy_polymer[1] c_pxy_polymer[2] c_pxy_polymer[3] file energy.avg.csv
fix 		  avgEnergy     all     ave/time 1 100 4000 c_pe_polymer c_ke_polymer c_ebond_polymer c_pxy_polymer[1] c_pxy_polymer[2] c_pxy_polymer[3] file energy.avg.csv
fix       avgPxx_all    all     ave/time ${Nevery_1} ${Nfreq} ${Nfreq}     c_pxx_polymer[1] c_pxx_polymer[2] c_pxx_polymer[3]                                           file pxx.all.avg.csv
fix       avgPxx_all    all     ave/time 1 ${Nfreq} ${Nfreq}     c_pxx_polymer[1] c_pxx_polymer[2] c_pxx_polymer[3]                                           file pxx.all.avg.csv
fix       avgPxx_all    all     ave/time 1 4000 ${Nfreq}     c_pxx_polymer[1] c_pxx_polymer[2] c_pxx_polymer[3]                                           file pxx.all.avg.csv
fix       avgPxx_all    all     ave/time 1 4000 4000     c_pxx_polymer[1] c_pxx_polymer[2] c_pxx_polymer[3]                                           file pxx.all.avg.csv

# TIME-AVG Ly
variable Ly equal ly
fix       avgLy         all     ave/time ${Nevery_1} ${Nfreq} ${Nfreq}     v_Ly  file Ly.avg.csv
fix       avgLy         all     ave/time 1 ${Nfreq} ${Nfreq}     v_Ly  file Ly.avg.csv
fix       avgLy         all     ave/time 1 4000 ${Nfreq}     v_Ly  file Ly.avg.csv
fix       avgLy         all     ave/time 1 4000 4000     v_Ly  file Ly.avg.csv

# SIMULATION FIXES
fix  npt        all npt temp ${Temp} ${Temp} 2.0 y 0 0 5 z 0 0 5 couple yz
fix  npt        all npt temp 1 ${Temp} 2.0 y 0 0 5 z 0 0 5 couple yz
fix  npt        all npt temp 1 1 2.0 y 0 0 5 z 0 0 5 couple yz
fix  mom        all momentum 10000 linear 1 1 1
fix  deform     all deform 1 x erate ${gamma_rate} remap x units box
fix  deform     all deform 1 x erate 5e-05 remap x units box

# THERMO
variable  thermo_frq equal ${Nfreq}
variable  thermo_frq equal 4000
thermo    ${thermo_frq}
thermo    4000
thermo_style  custom step time temp press pe ke ebond etotal epair ecouple lx ly lz pxx pyy pzz pxy pxz pyz cpu cpuremain

# deform
run ${Run}
run 40000000
Generated 0 of 36 mixed pair_coeff terms from geometric mixing rule
Neighbor list info ...
  update: every = 1 steps, delay = 1 steps, check = yes
  max neighbors/atom: 2000, page size: 100000
  master list distance cutoff = 2.8
  ghost atom cutoff = 2.8
  binsize = 1.4, bins = 35 35 35
  1 neighbor lists, perpetual/occasional/extra = 1 0 0
  (1) pair lj/cut, perpetual
      attributes: half, newton on
      pair build: half/bin/newton
      stencil: half/bin/3d
      bin: standard
WARNING: Inconsistent image flags (src/domain.cpp:819)
Per MPI rank memory allocation (min/avg/max) = 12.77 | 12.77 | 12.78 Mbytes
   Step          Time           Temp          Press          PotEng         KinEng         E_bond         TotEng         E_pair        Ecouple           Lx             Ly             Lz            Pxx            Pyy            Pzz            Pxy            Pxz            Pyz            CPU          CPULeft    
         0   0              0.9981189     -0.010050385    16.631726      1.4971637      21.109743      18.12889      -4.478017       0              48.506632      48.506632      48.506632     -0.03807942    -0.025244169    0.033172435   -0.0037693976   0.0010351602   0.039905925    0              0            
      4000   4              1.0020327      0.048582291    16.637931      1.5030345      21.105986      18.140966     -4.4680551     -1217.5291      48.516333      48.527246      48.527246     -0.0037443456   0.071540011    0.077951206    0.0013373928   0.030760417    0.014685125    32.707296      327040.26    
      8000   8              0.9987141      0.0035322178   16.640135      1.4980565      21.106395      18.138192     -4.4662597     -913.05589      48.526034      48.536446      48.536446      0.0071665534   0.0051099287  -0.0016798286   0.012345317    0.0037942638  -0.012166394    65.651143      328190.07    
     12000   12             1.0003473     -0.019028932    16.634588      1.5005063      21.104848      18.135095     -4.4702601     -574.93069      48.535736      48.523786      48.523786      0.0046433739  -0.038384077   -0.023346093   -0.0061321466  -0.0049019617   0.027374099    98.335164      327685.55    
     16000   16             0.99992615    -0.049667017    16.630787      1.4998746      21.105506      18.130662     -4.4747186     -100.28871      48.545437      48.504298      48.504298     -0.042844223   -0.063316402   -0.042840424   -0.0088282982   0.0068463953   0.028624491    130.85463      327005.72    
     20000   20             1.0016247      0.024100264    16.639598      1.5024225      21.10896       18.142021     -4.4693617     -1243.4408      48.555138      48.503039      48.503039     -0.0053906525   0.040695902    0.036995541    0.03851349     0.015271059   -0.046355134    163.69246      327221.23    
     24000   24             1.0028452     -0.010762834    16.638288      1.5042532      21.107554      18.142541     -4.469266      -1275.9874      48.56484       48.506891      48.506891     -0.0061900103  -0.024561715   -0.0015367763   0.0049556993  -0.055314247    0.0077426698   196.15357      326726.46    
     28000   28             0.99892247    -0.01874535     16.631774      1.4983691      21.107605      18.130143     -4.4758312      15.499782      48.574541      48.473996      48.473996      0.016885335   -0.032580718   -0.040540666   -0.010437449    0.0014769422   0.05485379     228.38194      326031.54    
     32000   32             1.0059071      0.078793867    16.632558      1.5088459      21.107756      18.141404     -4.4751986     -1118.212       48.584242      48.455221      48.455221      0.11197352     0.098172531    0.026235548   -0.027719269    0.01111644     0.00015394891  260.73871      325662.66    
     36000   36             1.0056913      0.022504003    16.633987      1.5085222      21.104872      18.14251      -4.4708852     -1211.2248      48.593944      48.463488      48.463488      0.035462629    0.015511502    0.016537878   -0.0018691471  -0.041541012    0.024620875    293.41118      325719.01    
     40000   40             1.0006867      0.028770982    16.635048      1.5010155      21.108118      18.136064     -4.4730701     -529.72986      48.603645      48.450872      48.450872     -0.011600752    0.082982713    0.014930984   -0.026634284    0.0069729638  -0.0071310659   325.8054       325479.59    
     44000   44             1.0030923      0.010837153    16.630411      1.5046238      21.105221      18.135035     -4.4748096     -404.36848      48.613346      48.447243      48.447243      0.025648137    0.04353407    -0.03667075    -0.00096792876  0.04479105    -0.02431667     357.80456      324919.07    
     48000   48             1.0006033     -0.020735806    16.630381      1.5008903      21.108241      18.131271     -4.4778594      2.1455239      48.623048      48.430554      48.430554     -0.0044364568  -0.032517518   -0.025253442    0.0019696022  -0.025288017   -0.03129629     390.37044      324918.33    
     52000   52             0.99927983    -0.043520356    16.634258      1.4989051      21.109599      18.133163     -4.475341      -171.19311      48.632749      48.448544      48.448544     -0.063762431   -0.076448931    0.0096502922  -0.026266531    0.012766627   -0.015266275    423.01192      324970.78    
     56000   56             1.0009282      0.050442777    16.640647      1.5013777      21.10833       18.142024     -4.4676829     -1058.501       48.64245       48.446786      48.446786      0.04121201     0.084424847    0.025691474    0.011930368    0.025609668   -0.021315193    455.11755      324628.85    
     60000   60             1.0007129      0.026945364    16.633581      1.5010547      21.10654       18.134636     -4.4729582     -281.26806      48.652152      48.435415      48.435415     -0.010665498   -0.0017362981   0.093237887   -0.013867631    0.036928767    0.022696471    487.17691      324297.43    
     64000   64             0.99530773     0.011734092    16.636889      1.492947       21.109181      18.129836     -4.4722927      231.33754      48.661853      48.425725      48.425725     -0.00042217102  0.058931988   -0.023307541    0.024884538    0.021839088   -0.0024643964   519.38119      324093.86    
     68000   68             1.0026352     -0.0067776265   16.641865      1.5039382      21.107829      18.145804     -4.4659637     -1384.9319      48.671554      48.458107      48.458107     -0.077253105    0.046465077    0.010455148    0.056271447    0.03551892    -0.00039276586  551.19536      323681.37    
     72000   72             0.99746556    -0.064875954    16.638952      1.4961837      21.107893      18.135136     -4.4689406     -270.7419       48.681256      48.439201      48.439201     -0.056434518   -0.12600664    -0.012186701    0.014226754   -0.013190724   -0.036362483    583.24965      323444.33    
     76000   76             1.0023315     -0.049850335    16.630651      1.5034826      21.106654      18.134133     -4.4760034     -147.42255      48.690957      48.429991      48.429991     -0.019816643   -0.047016149   -0.082718213    0.011034416   -0.021947203   -0.029791084    615.50112      323332.46    
     80000   80             1.000658       0.0034639519   16.64685       1.5009724      21.105524      18.147822     -4.4586742     -1529.742       48.700658      48.461482      48.461482     -6.05717e-06    0.022565455   -0.012167542    0.017499193   -0.014324545   -0.0024395962   647.93859      323321.36    
     84000   84             1.0024954      0.009746653    16.639094      1.5037284      21.106652      18.142822     -4.4675582     -996.99061      48.71036       48.4358        48.4358        0.023299263   -0.023395385    0.029336081    0.015918668   -0.03740824     0.019064883    679.77827      323024.16    
     88000   88             0.99720073     0.010366597    16.636693      1.4957865      21.105448      18.132479     -4.4687554      83.634201      48.720061      48.422395      48.422395     -0.024362167    0.031284056    0.024177903    0.0073437284  -0.0010022182   0.009488949    712.15153      322993.09    
     92000   92             0.99708479     0.0055617522   16.638879      1.4956126      21.106476      18.134492     -4.4675968     -102.16449      48.729762      48.423239      48.423239      0.050688172   -0.044222011    0.010219095    0.013000168    0.028625849    0.0047026327   744.1125       322783.06    
     96000   96             1.0026539      0.0097579289   16.634441      1.5039662      21.105194      18.138407     -4.4707526     -482.91542      48.739464      48.415041      48.415041      0.080970157   -0.054254939    0.0025585683  -0.01238873    -0.01326295    -0.025798744    776.05243      322579.13    
    100000   100            1.0005259     -0.033926       16.636998      1.5007742      21.108482      18.137772     -4.4714845     -397.42727      48.749165      48.396628      48.396628     -0.037754033   -0.02666515    -0.037358816   -0.0090075417   0.010066708    0.02287513     807.91232      322357.02    
    104000   104            0.99853923    -0.012179723    16.630192      1.4977942      21.106977      18.127987     -4.4767851      625.90746      48.758866      48.371291      48.371291     -0.024258932   -0.014274199    0.0019939626   0.026554663    0.0045927545   0.022598088    839.9589       322221.16    
    108000   108            0.99702683    -0.022510148    16.628134      1.4955257      21.10591       18.12366      -4.4777756      1089.7467      48.768567      48.374679      48.374679     -0.015804639   -0.041920002   -0.0098058041  -2.8615118e-05 -0.026503477    0.015469044    872.40852      322241.86    
    112000   112            0.99847616    -0.058849429    16.641914      1.4976996      21.106801      18.139614     -4.4648866     -525.03274      48.778269      48.418636      48.418636     -0.076242427   -0.045065989   -0.05523987     0.032585149   -0.025040168   -0.022390332    904.4099       322099.13    
    116000   116            0.99548825    -0.013378535    16.644621      1.4932178      21.107045      18.137839     -4.4624236     -322.82519      48.78797       48.412055      48.412055      0.0042381965  -0.0054166475  -0.038957154   -0.031061344   -0.0039931054  -0.0018267787   936.54085      322008.58    
    120000   120            1.0018564      0.016535504    16.637016      1.5027699      21.107327      18.139786     -4.4703107     -501.523        48.797671      48.382908      48.382908      0.020760705    0.0065738816   0.022271926   -0.057834795    0.01142709    -0.0014776672   968.61368      321902.61    
    124000   124            1.000205      -0.043610669    16.646651      1.5002929      21.109523      18.146944     -4.4628717     -1214.4736      48.807373      48.410604      48.410604     -0.093191794   -0.013611439   -0.024028775    0.014418264    0.016157717   -0.044857126    1000.6334      321784.34    
    128000   128            1.0012791      0.0013289744   16.636913      1.501904       21.10627       18.138817     -4.4693571     -360.79671      48.817074      48.382331      48.382331      0.0036117154   0.017663742   -0.017288534   -0.012785444    0.0074681517  -0.019871586    1032.6394      321667.18    
    132000   132            0.99921069    -0.0029219285   16.634751      1.4988014      21.108703      18.133552     -4.4739522      199.29099      48.826775      48.341619      48.341619      0.01849171    -0.0067586723  -0.020498823    0.021321242   -0.037194818   -0.015825684    1065.6368      321854.6     
    136000   136            1.0007066     -0.013042701    16.634525      1.5010452      21.107429      18.13557      -4.4729033      12.892282      48.836477      48.35003       48.35003       0.002554429    0.0036751427  -0.045357676   -0.011102312   -0.0041488006   0.0089860883   1098.4981      321989.18    
    140000   140            1.0006942     -0.0049410258   16.642186      1.5010266      21.102243      18.143213     -4.4600564     -749.74778      48.846178      48.381982      48.381982      0.012601949   -0.0044644219  -0.022960605    0.0016562069  -0.038069168   -0.010206449    1131.0051      322013.31    
    144000   144            0.9983469     -0.011855397    16.634321      1.4975057      21.10673       18.131826     -4.4724093      437.67627      48.855879      48.342329      48.342329      0.010991106   -0.016615127   -0.029942169    0.042843408    0.038024639    0.0024898416   1163.5988      322058.28    
    148000   148            0.99943697     0.026437655    16.631041      1.4991408      21.10351       18.130182     -4.4724685      627.03492      48.865581      48.336726      48.336726     -0.025854801    0.0019736346   0.10319413    -0.013071092    0.034033101   -0.012017032    1195.5638      321929.79    
    152000   152            1.0020279     -0.026557146    16.630363      1.5030272      21.107214      18.13339      -4.4768515      319.04672      48.875282      48.328051      48.328051     -0.051168727   -0.03808261     0.0095798994  -0.0090366953  -0.010727946   -0.021553945    1227.3183      321751.17    
    156000   156            0.99673266    -0.044552426    16.635464      1.4950844      21.107603      18.130548     -4.4721393      630.48186      48.884983      48.327501      48.327501     -0.064947775   -0.050348184   -0.01836132    -0.026988969   -0.0028867576  -0.011097499    1259.3743      321657.12    
    160000   160            1.0003269     -0.012151636    16.642515      1.5004758      21.109573      18.142991     -4.4670582     -624.62667      48.894685      48.34308       48.34308      -0.036702932    0.017206723   -0.0169587     -0.021361513    0.027130732    0.0043462261   1292.0895      321730.29    
    164000   164            0.99995349    -0.023984106    16.645049      1.4999156      21.107018      18.144964     -4.4619696     -806.11073      48.904386      48.36352       48.36352      -0.051534239   -0.0020850633  -0.018333016    0.012669298    0.025443043    0.049389441    1324.5843      321744.76    
    168000   168            0.99949981    -0.023876246    16.639139      1.4992351      21.106848      18.138374     -4.4677089     -109.86365      48.914087      48.353671      48.353671     -0.027199131   -0.0060233438  -0.038406263   -0.03007603    -0.00025337223 -0.015645927    1357.1825      321781.51    
    172000   172            0.99856975     0.029281364    16.630692      1.49784        21.101435      18.128532     -4.4707433      919.09564      48.923789      48.317431      48.317431      0.055237198    0.047899857   -0.015292963   -0.024389288   -0.0048971098  -0.016218838    1390.053       321878.1     
    176000   176            0.99776719    -0.0054997786   16.636235      1.4966362      21.106579      18.132871     -4.4703436      494.62438      48.93349       48.321436      48.321436     -0.0094112176   0.0067566905  -0.013844809   -0.014917712   -0.026126863    0.014504575    1422.4091      321852.38    
    180000   180            1.0004933     -0.019902297    16.63883       1.5007252      21.105329      18.139555     -4.4664986     -170.09778      48.943191      48.325878      48.325878     -0.0029631578   0.020870343   -0.077614076    0.0043428702   0.0020425354   0.035340058    1454.5358      321775.64    
    184000   184            0.99600864     0.025642145    16.637669      1.4939984      21.10601       18.131667     -4.4683409      659.22552      48.952893      48.312242      48.312242      0.053026673    0.025274965   -0.0013752016  -0.013123996    0.0069763923  -0.0021186622   1487.148       321805.9     
    188000   188            1.0027903     -0.075222442    16.640037      1.5041708      21.107804      18.144208     -4.4677671     -605.31268      48.962594      48.317514      48.317514     -0.062840644   -0.13747138    -0.0253553     -0.044051348   -0.044357078   -0.00062231812  1519.6642      321813.15    
    192000   192            1.0051837      0.012401161    16.636556      1.5077608      21.109581      18.144317     -4.4730253     -596.07865      48.972295      48.2843        48.2843        0.032399251    0.013733888   -0.008929655   -0.021158614   -0.019002565    0.0079705012   1552.2727      321837.87    
    196000   196            0.99579335     0.010638221    16.646191      1.4936754      21.112748      18.139867     -4.4665564     -118.68107      48.981997      48.300606      48.300606     -0.026190836   -0.0053035037   0.063409002    0.01292725     0.00066639131 -0.018543104    1584.6773      321818.86    
    200000   200            0.99831746     0.01108021     16.636499      1.4974616      21.104638      18.133961     -4.4681392      506.65669      48.991698      48.293328      48.293328     -0.037973521    0.0054032367   0.065810913   -0.027315213   -0.00066107233  0.019774304    1616.9266      321768.39    
    204000   204            0.99262091    -0.023246306    16.63541       1.4889168      21.108365      18.124327     -4.4729551      1514.5707      49.001399      48.269775      48.269775     -0.044797519   -0.0094480393  -0.01549336    -0.048638227   -0.0084840815  -0.0086739551   1649.2593      321734.92    
    208000   208            1.0021765     -0.0013935465   16.636686      1.50325        21.106533      18.139936     -4.4698477     -64.763852      49.011101      48.286378      48.286378      0.019203837   -0.0055812877  -0.017803189   -0.022483087    0.027967525    0.046404284    1681.2459      321635.28    
    212000   212            0.99949619    -0.06497274     16.635346      1.4992297      21.107293      18.134576     -4.4719473      505.2613       49.020802      48.276099      48.276099     -0.13366255    -0.02284619    -0.038409475   -0.049141537    0.0047100156   0.00079074224  1713.3742      321564.78    
    216000   216            0.99493647     0.01617454     16.634632      1.4923901      21.108596      18.127022     -4.4739648      1300.0096      49.030503      48.241833      48.241833      0.0075046972   0.021009348    0.020009575    0.01476506     0.00095830681 -0.00024142735  1745.3977      321476.41    
    220000   220            1.0013103     -0.039847751    16.632169      1.5019509      21.103751      18.13412      -4.4715814      592.89248      49.040205      48.262482      48.262482     -0.045262536   -0.032708074   -0.041572642   -0.012728444   -0.023362009   -0.0095500853   1777.1515      321341.31    
    224000   224            0.99922779     0.039417152    16.643381      1.4988271      21.105952      18.142208     -4.4625709     -215.25834      49.049906      48.286247      48.286247      0.076872225    0.017192068    0.024187162    0.0055916073  -0.021059465   -0.016376317    1809.0744      321239.93    
    228000   228            0.99892807    -0.03825375     16.630612      1.4983775      21.102806      18.128989     -4.4721939      1159.9508      49.059607      48.251272      48.251272     -0.028416492   -0.040940339   -0.045404418    0.012465123   -0.026787141    0.013156597    1841.0292      321146.55    
    232000   232            0.99661481    -0.0079273356   16.63578       1.4949076      21.107032      18.130688     -4.471252       1006.3044      49.069309      48.246234      48.246234     -0.0072925384  -0.029738668    0.0132492     -0.03060769     0.017543481   -0.0041666728   1872.8958      321040.17    
    236000   236            1.0032785      0.037661706    16.637063      1.504903       21.106092      18.141966     -4.4690295     -129.70166      49.07901       48.248489      48.248489      0.038991696    0.0088489537   0.065144469   -0.015375264    0.030683067    0.045697739    1904.8771      320955.65    
    240000   240            0.99970556     0.023721324    16.637062      1.4995437      21.104655      18.136605     -4.4675933      440.28035      49.088711      48.241329      48.241329      0.074888656   -0.042795247    0.039070564    0.072161138   -0.035249293   -0.0080146122   1936.8588      320872.94    
    244000   244            1.0022011     -0.04001196     16.629712      1.503287       21.102451      18.132999     -4.4727396      829.96533      49.098413      48.231091      48.231091     -0.033556413   -0.085792172   -0.00068729455  0.010983937    0.04441204    -0.023587299    1968.8014      320785.53    
    248000   248            1.0007849      0.029693974    16.632175      1.5011627      21.105479      18.133337     -4.4733045      816.13679      49.108114      48.217342      48.217342      0.030468647    0.013688158    0.044925117   -0.028052458   -0.018114677    0.0028212267   2001.007       320742.06    
    252000   252            1.0019477      0.0022185264   16.639408      1.5029069      21.108316      18.142315     -4.4689082     -83.682644      49.117815      48.222383      48.222383     -0.028436273   -0.023723686    0.058815538   -0.044331829    0.028360703   -0.025366807    2032.9932      320664.33    
    256000   256            0.99551542    -0.041872769    16.636338      1.4932586      21.108098      18.129596     -4.4717602      1240.079       49.127517      48.2169        48.2169       -0.012581884   -0.093885373   -0.01915105    -0.019720179    0.0073793831   0.018946272    2064.9762      320587.56    
    260000   260            1.0002305     -0.01752244     16.634867      1.5003311      21.105938      18.135198     -4.4710712      685.90016      49.137218      48.224166      48.224166     -0.0014003335  -0.065760014    0.014593028   -0.033675933    0.011519569   -0.014436797    2097.046       320525.42    
    264000   264            1.000535      -0.061126513    16.640429      1.5007878      21.104659      18.141216     -4.4642306      89.602527      49.146919      48.23006       48.23006      -0.042506768   -0.055912581   -0.084960191    0.027572979    0.038779904    0.012810089    2129.1927      320475.77    
    268000   268            1.0016876     -0.0069406451   16.638666      1.5025167      21.107565      18.141182     -4.4688992      113.34521      49.156621      48.210489      48.210489      0.016855728    0.010243847   -0.04792151     0.028184755    0.015548219    0.012746259    2161.0843      320388.81    
    272000   272            0.99720566    -0.038207605    16.633099      1.4957939      21.107113      18.128893     -4.474014       1393.0396      49.166322      48.190956      48.190956     -0.063716839    0.030705573   -0.08161155    -0.00046202247 -0.032798884   -0.0057074825   2193.1686      320331.62    
    276000   276            0.99823557    -0.016881391    16.637477      1.4973388      21.10142       18.134815     -4.4639435      806.16622      49.176023      48.196387      48.196387      0.023697574   -0.017621547   -0.056720199   -0.016627784    0.001825012    0.028966019    2225.4491      320303.41    
    280000   280            1.0012316      0.043352554    16.647882      1.5018327      21.109648      18.149715     -4.4617666     -700.39753      49.185725      48.219288      48.219288     -0.014487267    0.11754657     0.026998358   -0.012933111   -0.037609733   -0.0030259431   2257.6978      320270.56    
    284000   284            0.99982132    -0.081335948    16.638013      1.4997173      21.102649      18.13773      -4.4646359      547.78655      49.195426      48.21369       48.21369      -0.051109584   -0.083288176   -0.10961008    -0.016589071    0.014995014    0.014702817    2289.6415      320195.08    
    288000   288            0.99781487     0.0067920406   16.635801      1.4967077      21.10786       18.132508     -4.4720597      1103.4957      49.205127      48.180261      48.180261      0.0090653038  -0.016503684    0.027814502    0.0084674614  -0.028559778   -0.034329689    2321.4787      320106.11    
    292000   292            0.99874994     0.03157774     16.625512      1.4981103      21.100989      18.123622     -4.4754773      2033.8767      49.214828      48.162161      48.162161      0.010384951    0.04467879     0.03966948    -0.018892793   -0.0025515797   0.00075422086  2353.6328      320061.82    
    296000   296            0.99842692     0.019633009    16.637269      1.4976258      21.107908      18.134894     -4.470639       899.11184      49.22453       48.182614      48.182614      0.035583343    0.030729204   -0.0074135205  -0.021717772    0.0050620045   0.031386465    2385.7672      320015.2     
    300000   300            1.0018363      0.00574609     16.637185      1.5027398      21.109544      18.139925     -4.4723589      403.9789       49.234231      48.158073      48.158073     -0.0021909243   0.0056724267   0.013756768    0.042471066   -0.035404601    0.049750228    2417.6866      319940.52    
    304000   304            0.99994887    -0.018238715    16.633032      1.4999087      21.107395      18.132941     -4.4743628      1139.6878      49.243932      48.155167      48.155167     -0.043418972   -0.0039225447  -0.0073746292   0.040253949    0.015445313    0.011174831    2449.9968      319918       
    308000   308            0.99550518    -0.056830372    16.627348      1.4932432      21.101612      18.120591     -4.4742634      2426.0697      49.253634      48.15597       48.15597      -0.062672203   -0.087403748   -0.020415164   -0.029244448   -0.051394595   -0.015025346    2482.1132      319870.25    
    312000   312            0.99840755    -0.028624549    16.629149      1.4975967      21.104776      18.126745     -4.4756272      1815.2349      49.263335      48.141228      48.141228     -0.056093099    0.012421972   -0.042202519   -0.016108259   -0.0082441128  -0.022470307    2513.7855      319766.4     
    316000   316            1.0019215      0.016991354    16.635232      1.5028675      21.106648      18.138099     -4.4714162      671.77644      49.273036      48.128692      48.128692      0.018176288    0.019488254    0.013309521   -0.017823301   -0.026097863    0.019204909    2545.8438      319712.86    
    320000   320            1.0044029      0.0048899343   16.637291      1.5065896      21.110123      18.14388      -4.472832       99.697501      49.282738      48.104166      48.104166      0.031020597   -0.039622605    0.023271811   -0.026510554   -0.048032737   -0.026343097    2578.2421      319702.02    
    324000   324            0.99871146     0.038562891    16.632689      1.4980526      21.104445      18.130741     -4.4717568      1466.8287      49.292439      48.111886      48.111886      0.032751042    0.076910798    0.0060268328   0.016613305   -0.023385545   -0.0056488468   2610.4635      319668.98    
    328000   328            0.99637458     0.031079474    16.635732      1.4945473      21.109674      18.130279     -4.4739425      1534.4258      49.30214       48.116139      48.116139      0.0078222438   0.054882199    0.030533979   -0.050093617   -0.024105913   -0.024355989    2642.3282      319592.82    
    332000   332            0.99963226     0.012999649    16.639384      1.4994338      21.109159      18.138817     -4.4697751      679.98009      49.311842      48.11373       48.11373       0.001444048    0.016639659    0.02091524     0.020628958   -0.018655835    0.010982308    2674.437       319546.89    
    336000   336            1.0034778      0.061090341    16.633951      1.505202       21.103931      18.139153     -4.4699803      665.81735      49.321543      48.117619      48.117619      0.089363748    0.069281492    0.024625784   -0.040535584    0.058867742   -0.016186574    2706.4188      319486.29    
    340000   340            0.99961874     0.018575421    16.637724      1.4994135      21.103603      18.137138     -4.4658788      892.39779      49.331244      48.131925      48.131925     -0.021731391    0.04198636     0.035471294   -0.017846365   -0.0051276334  -0.038648079    2738.3405      319419.37    
    344000   344            0.99413608    -0.048201075    16.634692      1.4911896      21.10647       18.125881     -4.4717781      2066.8625      49.340946      48.113534      48.113534     -0.090803728   -0.067351855    0.013552359   -0.01296546    -0.033424582    0.016068844    2770.4409      319373.85    
    348000   348            1.0009467     -0.067557291    16.633623      1.5014054      21.107098      18.135029     -4.4734745      1149.5539      49.350647      48.109802      48.109802     -0.062741564   -0.089840158   -0.050090151    0.0090955291   0.0056711015  -0.0095611065   2802.9148      319371.2     
    352000   352            1.0001866     -0.025298844    16.639517      1.5002653      21.108817      18.139783     -4.4692998      682.61387      49.360348      48.121715      48.121715     -0.088207528    0.064552025   -0.05224103     0.033285479    0.0033107518  -0.01893651     2835.3769      319366.54    
    356000   356            1.0031446     -0.018059511    16.633772      1.5047023      21.107189      18.138475     -4.4734166      837.0966       49.37005       48.08733       48.08733      -0.055708231    0.0034618012  -0.0019321021   0.0072465329  -0.020780851   -0.030460547    2867.5082      319324.42    
    360000   360            1.0009706      0.045860997    16.630628      1.5014413      21.10493       18.132069     -4.4743027      1514.1553      49.379751      48.068598      48.068598      0.027438513   -0.0088869885   0.11903147    -0.015449317   -0.03381819     0.031827649    2899.4196      319258.32    
    364000   364            1.0002575      0.041602026    16.63863       1.5003716      21.112191      18.139001     -4.4735615      823.62271      49.389452      48.065769      48.065769      0.067243578    0.0080476231   0.049514877    0.0018591269   0.023671734    0.014688564    2931.4207      319202.73    
    368000   368            1.0018155      0.050526415    16.64082       1.5027086      21.111286      18.143528     -4.4704663      379.831        49.399154      48.06531       48.06531       0.0081551729   0.08775815     0.055665923    0.013349796   -0.024644308    0.01469651     2963.0535      319107.97    
    372000   372            0.99961078     0.01362674     16.631309      1.4994015      21.106299      18.130711     -4.4749899      1713.197       49.408855      48.061933      48.061933      0.064452583   -0.013614497   -0.0099578648   0.011978997    0.0073068799  -0.025571398    2995.0405      319052.33    
    376000   376            0.99967128    -0.047371135    16.628073      1.4994923      21.105098      18.127565     -4.4770255      2055.4975      49.418556      48.066562      48.066562     -0.060946461   -0.082623638    0.0014566941  -0.015086645   -0.022455682   -0.018842228    3027.2596      319021.63    
    380000   380            1.0030436     -0.0005968297   16.638064      1.5045508      21.108764      18.142615     -4.4706999      533.31942      49.428258      48.066148      48.066148      0.0076318343  -0.041803164    0.032380841   -0.020908172   -0.020363738   -0.012800572    3059.1419      318955.79    
    384000   384            0.99775902     0.0012689279   16.636075      1.4966239      21.10492       18.132699     -4.4688444      1569.669       49.437959      48.071791      48.071791     -0.021681008    0.02113883     0.0043489619  -0.010217953   -0.023937257    0.025269263    3091.252       318914.17    
    388000   388            0.99457151     0.0042811719   16.634669      1.4918427      21.105461      18.126512     -4.4707915      2224.1643      49.44766       48.053781      48.053781     -0.0859709      0.063091166    0.03572325    -0.029499847    0.0010752633   0.022430966    3122.9466      318830.31    
    392000   392            0.99622599    -0.045770511    16.631857      1.4943244      21.104919      18.126181     -4.4730616      2277.7076      49.457362      48.049883      48.049883     -0.073373225   -0.02667164    -0.037266666    0.034034062   -0.023179304   -0.015609678    3155.2916      318813.24    
    396000   396            1.0008059     -0.041689865    16.636841      1.5011942      21.107409      18.138035     -4.4705677      1083.5021      49.467063      48.057017      48.057017     -0.096771315    0.0068731119  -0.035171393    0.0013368758  -0.037763042   -0.011727806    3187.9648      318828.68    
    400000   400            1.0002153     -0.0027774285   16.630788      1.5003084      21.102611      18.131097     -4.4718228      1814.8267      49.476764      48.036363      48.036363     -0.0075271379  -0.023108765    0.022303618   -0.00097307641 -0.0043333906   0.014506       3219.7348      318753.75    
    404000   404            0.99940026     0.026678999    16.628003      1.4990858      21.103435      18.127089     -4.4754313      2245.6696      49.486466      48.027938      48.027938      0.036653008   -0.0073768916   0.050760879   -0.044942497    0.052712258    0.0024103726   3252.0852      318736.54    
    408000   408            1.0011682      0.025290206    16.632679      1.5017376      21.108501      18.134417     -4.4758216      1514.7144      49.496167      48.018379      48.018379     -0.014496482    0.034032319    0.056334782   -0.059738516   -0.021813072    0.036098313    3284.2396      318700.03    
    412000   412            0.99891014     0.0087911828   16.634686      1.4983506      21.108937      18.133037     -4.4742505      1676.2629      49.505868      48.01014       48.01014       0.047083752   -0.03450335     0.013793146    0.033718773    0.026900546    0.005867348    3316.3329      318657.73    
    416000   416            1.0026058     -0.029416619    16.631209      1.5038941      21.107007      18.135103     -4.4757978      1484.921       49.51557       48.003521      48.003521     -0.0097379769  -0.031983217   -0.046528662   -0.018658845   -0.020305558    0.018781871    3348.7379      318645.29    
    420000   420            1.0006438      0.0067894598   16.638367      1.500951       21.103303      18.139318     -4.4649361      1073.1893      49.525271      48.052156      48.052156      0.026685542    0.00074150646 -0.007058669   -0.030493586    0.033694384    0.006272937    3381.1504      318633.17    
    424000   424            1.0031326     -0.0036278403   16.641302      1.5046842      21.109341      18.145986     -4.4680394      410.00081      49.534972      48.030244      48.030244      0.017690074   -0.013297946   -0.01527565     0.030789103   -0.025371206   -0.01480229     3413.5448      318618.98    
    428000   428            0.9990932      0.0062141651   16.633019      1.4986252      21.101028      18.131644     -4.4680084      1899.7714      49.544674      48.016076      48.016076      0.039253772   -0.00026900982 -0.020342266   -0.0040578028  -0.012609492    0.0018210861   3445.8607      318597.19    
    432000   432            1.0021086     -0.033330731    16.638138      1.5031482      21.108632      18.141287     -4.4704931      931.67901      49.554375      47.988825      47.988825     -0.058705023   -0.035866029   -0.005421141    0.042815768    0.0087876022   0.022926838    3478.1972      318577.1     
    436000   436            0.99947918     0.02977816     16.637615      1.4992041      21.111683      18.136819     -4.4740684      1409.7492      49.564076      47.979769      47.979769      0.0065803732   0.029529134    0.053224971    0.037644374   -0.0075837866  -0.018895048    3509.968       318505.44    
    440000   440            0.99813258    -0.033901259    16.625181      1.4971843      21.100853      18.122365     -4.4756723      2911.5668      49.573778      47.973721      47.973721     -0.026209176   -0.05657258    -0.018922023    0.032008317   -0.05217345     0.018172675    3542.1414      318470.72    
    444000   444            1.001096      -0.021544741    16.633536      1.5016294      21.106199      18.135165     -4.4726628      1619.3896      49.583479      47.978822      47.978822     -0.021476358    0.0074612518  -0.050619119    0.048118761    0.033376827   -0.010280234    3574.0798      318415.09    
    448000   448            1.002192       0.018115841    16.639178      1.5032734      21.109087      18.142452     -4.4699085      893.24806      49.59318       47.989517      47.989517     -0.0047965096   0.035110524    0.024033508    0.019576907    0.0059082802   0.057412491    3606.2353      318379.06    
    452000   452            0.99870194     0.017378672    16.636357      1.4980383      21.104372      18.134395     -4.468015       1738.7925      49.602882      47.986052      47.986052      0.029528539    0.026512324   -0.003904847   -0.0049609292   0.024799876    0.0139805      3639.0581      318401.48    
    456000   456            0.99880266     0.077313239    16.629877      1.4981894      21.103492      18.128066     -4.4736148      2407.4486      49.612583      47.967297      47.967297      0.070700288    0.09669652     0.064542908    0.014905127   -0.010056163   -0.027017561    3671.4386      318384.58    
    460000   460            1.0035126      0.017515873    16.635869      1.5052542      21.1093        18.141123     -4.4734314      1089.8385      49.622284      47.971821      47.971821      0.022010098    0.012532994    0.018004528    0.00539439     0.0026278983   0.0041625258   3703.6527      318353.11    
    464000   464            1.000422       0.01152639     16.635013      1.5006184      21.108916      18.135631     -4.4739035      1672.5823      49.631986      47.966068      47.966068      0.017744651    0.04436474    -0.027530219   -0.031807693    0.028798496    0.00083596189  3735.6075      318299.53    
    468000   468            1.0014488     -0.0056541142   16.625912      1.5021585      21.104782      18.12807      -4.4788703      2467.8311      49.641687      47.934106      47.934106      0.020042983   -0.0625693      0.025563974   -0.052194609   -0.032331085   -0.013104747    3767.8274      318268.71    
    472000   472            0.99903655    -0.026756155    16.642926      1.4985402      21.110784      18.141466     -4.4678575      1115.1745      49.651388      47.961378      47.961378     -0.025344127   -0.014541152   -0.040383187   -0.018865896   -0.022192616    0.016454821    3799.5726      318198.1     
    476000   476            1.0044934     -0.051205185    16.636369      1.5067253      21.107906      18.143094     -4.4715374      969.14305      49.66109       47.956818      47.956818     -0.1384229     -0.027553158    0.012360506    0.025521069   -0.015504775   -0.029817447    3831.8378      318171.34    
    480000   480            0.99844262     0.034769516    16.632193      1.4976493      21.103609      18.129843     -4.4714157      2347.7425      49.670791      47.951299      47.951299      0.021377075    0.041005679    0.041925793   -0.016645235   -0.026785287    0.0020931165   3864.115       318145.47    
    484000   484            0.99985708    -0.027652462    16.638584      1.499771       21.106426      18.138355     -4.4678425      1495.4059      49.680492      47.974518      47.974518     -0.066143427    0.0056843187  -0.022498279   -0.014954691    0.010384248   -0.0017815845   3896.7978      318152.61    
    488000   488            1.0025192     -0.016705109    16.641684      1.5037642      21.111562      18.145448     -4.469878       788.77988      49.690193      47.96139       47.96139       0.02676722    -0.058934463   -0.017948083    0.0038413024   0.027201212   -0.055360482    3929.1733      318134.21    
    492000   492            0.99889592     0.022654132    16.629881      1.4983293      21.10396       18.128211     -4.4740787      2575.6248      49.699895      47.916763      47.916763     -0.016075172    0.047373968    0.0366636     -0.0083758117   0.0025914312   0.021686351    3961.3188      318097.12    
    496000   496            0.99629479     0.006078467    16.640914      1.4944276      21.105388      18.135341     -4.4644745      1865.1964      49.709596      47.947498      47.947498      0.02909626     0.016545943   -0.027406803    0.024563075    0.046677698   -0.030133419    3993.3763      318053.1     
    500000   500            1.0015098     -0.028220612    16.639804      1.5022501      21.102628      18.142054     -4.4628237      1197.3892      49.719297      47.95541       47.95541      -0.056897791   -0.049993268    0.022229223    0.016833519   -0.011965611   -0.019730689    4025.4932      318013.97    
    504000   504            0.99180178     0.0044395079   16.647044      1.4876882      21.110451      18.134732     -4.4634073      1968.1402      49.728999      47.944821      47.944821     -0.0086196174   0.02146941     0.00046873114 -0.02483216    -0.0011308852   0.027063134    4057.3567      317955.08    
    508000   508            0.99502216    -0.0013244963   16.640896      1.4925187      21.108566      18.133415     -4.4676697      2122.8626      49.7387        47.930741      47.930741      0.008956657   -0.0066105922  -0.0063195536   0.061110115    0.039438214   -0.02362477     4090.6911      318010.97    
    512000   512            0.99819232    -0.045918209    16.636328      1.4972739      21.106191      18.133602     -4.4698627      2123.8895      49.748401      47.927627      47.927627     -0.081742894   -0.02192181    -0.034089922    0.035732295    0.012563139    0.029298558    4122.7155      317964.43    
    516000   516            0.9946052     -0.051431778    16.632826      1.4918932      21.103232      18.124719     -4.4704059      3055.0161      49.758103      47.9084        47.9084       -0.098761143   -0.041424146   -0.014110044   -0.016865626    0.021840418    0.0033400671   4154.7132      317916.08    
    520000   520            0.99847615    -0.029616149    16.639058      1.4976996      21.110374      18.136757     -4.4713161      1841.8265      49.767804      47.908206      47.908206      0.0050974775  -0.043201806   -0.050744119    0.014003579    0.02559983    -0.031637694    4186.7496      317870.91    
    524000   524            1.0041571     -0.026764305    16.63232       1.5062209      21.104772      18.138541     -4.4724513      1678.9312      49.777505      47.909206      47.909206     -0.018660099   -0.025582031   -0.036050786    0.017228052    0.015828054    0.0047081498   4218.9639      317839.35    
    528000   528            0.99916733    -0.021805764    16.622362      1.4987364      21.106041      18.121098     -4.4836793      3486.9259      49.787207      47.863328      47.863328     -0.019394333   -0.032899205   -0.013123753    0.00305809    -0.059793257    0.039939458    4250.7579      317776.36    
    532000   532            1.0002847     -0.041126169    16.632887      1.5004124      21.104596      18.133299     -4.4717087      2256.6312      49.796908      47.896131      47.896131     -0.091738761   -0.0099747086  -0.021665038   -0.021307995   -0.021378871   -0.023437173    4282.466       317707.46    
    536000   536            0.99618586     0.008774641    16.643447      1.4942642      21.107473      18.137711     -4.464026       1824.799       49.806609      47.931021      47.931021      0.022958272   -0.03101457     0.034380221   -0.022054439   -0.05173568    -0.013957961    4314.631       317672.76    
    540000   540            0.99900352     0.016569031    16.650509      1.4984907      21.109349      18.148999     -4.4588404      688.09375      49.816311      47.922071      47.922071      0.0093384327   0.018406388    0.021962274    0.0043883409  -0.086366425    0.036819753    4346.5322      317618.82    
    544000   544            1.002742      -0.059505973    16.639655      1.5040984      21.106311      18.143753     -4.466656       1246.2138      49.826012      47.892902      47.892902     -0.075224666   -0.026607903   -0.076685349   -0.040993969   -0.038572177   -0.010001911    4378.7729      317589.83    
    548000   548            1.0027428      0.025721306    16.632262      1.5040996      21.102851      18.136361     -4.4705891      2023.8607      49.835713      47.842742      47.842742     -0.0072048434   0.019931876    0.064436886   -0.02624373     0.013050281   -0.034666402    4410.8419      317548.42    
    552000   552            0.99800412    -0.019261479    16.635157      1.4969916      21.105086      18.132149     -4.4699288      2475.9194      49.845415      47.861245      47.861245     -0.0016257215   0.004079714   -0.060238429   -0.019686892    0.0071563499  -0.0019744704   4442.9626      317510.85    
    556000   556            0.99717618     0.03110561     16.649061      1.4957497      21.107782      18.144811     -4.4587213      1198.5797      49.855116      47.885718      47.885718      0.045709122   -0.0065320295   0.054139739    0.0078797627  -0.050005913    0.0044937787   4474.8782      317458.81    
    560000   560            0.99859624     0.029202243    16.636164      1.4978797      21.107614      18.134044     -4.47145        2321.5631      49.864817      47.854847      47.854847      0.052665035    0.07898033    -0.044038635   -0.030509876   -0.0066494933  -0.013499501    4506.755       317404.32    
    564000   564            1.0031689     -0.041525287    16.627904      1.5047387      21.101072      18.132643     -4.4731681      2485.3748      49.874519      47.847756      47.847756     -0.075551899   -0.021634725   -0.027389235    0.017379823    0.016023436    0.017257931    4538.9751      317374.15    
    568000   568            1.0021443      0.010965427    16.63873       1.5032017      21.109338      18.141932     -4.4706075      1553.7262      49.88422       47.829937      47.829937      0.032027173    0.0077668221  -0.0068977125   0.010078457    0.016567015    0.01665877     4570.9759      317328.74    
    572000   572            0.99922713     0.053070629    16.639258      1.4988261      21.10865       18.138084     -4.4693916      1967.8058      49.893921      47.833913      47.833913      0.031128753    0.1050994      0.022983733   -0.043030167    0.0080305709  -0.034354315    4602.8551      317275.12    
    576000   576            0.99747478     0.049341666    16.631216      1.4961976      21.107926      18.127413     -4.4767105      3081.8518      49.903623      47.828301      47.828301      0.037279374    0.061633211    0.049112413   -0.038805184   -0.020778213   -0.037350918    4635.0682      317244.67    
    580000   580            1.0010546     -0.076260177    16.636449      1.5015673      21.105891      18.138016     -4.469442       2015.1946      49.913324      47.842819      47.842819     -0.049455017   -0.066764733   -0.11256078     0.017903013    0.048385742    0.028584395    4667.1109      317202.61    
    584000   584            1.0035916     -0.049596304    16.632522      1.5053727      21.104977      18.137895     -4.4724555      2047.4047      49.923025      47.828947      47.828947     -0.02520363    -0.090991455   -0.032593829   -0.015373948    0.0027450022  -0.010946108    4698.8389      317139.44    
    588000   588            0.99957819    -0.010397158    16.62962       1.4993526      21.105566      18.128972     -4.4759465      2982.0552      49.932727      47.810186      47.810186      0.018752939    0.011857396   -0.061801809   -0.046066567   -0.025993421   -0.0030061622   4730.9022      317099.18    
    592000   592            1.0007703      0.036443978    16.634223      1.5011409      21.105571      18.135364     -4.4713475      2346.8536      49.942428      47.808019      47.808019      0.024867023    0.037478561    0.04698635    -0.038647903   -0.05085471    -0.0052273124   4762.7889      317047.27    
    596000   596            1.0042616     -0.018253714    16.640564      1.5063777      21.107122      18.146942     -4.4665587      1180.6013      49.952129      47.822935      47.822935     -0.024454494   -0.0017865198  -0.028520128    0.022189291   -0.028816537    0.029709604    4794.801       317003.92    
    600000   600            1.0007582      0.012483411    16.631439      1.5011227      21.107067      18.132562     -4.4756277      2674.2907      49.961831      47.7961        47.7961        0.017811104    0.022511136   -0.0028720057   0.008477786   -0.009502589   -0.02164548     4826.7666      316957.68    
    604000   604            0.99957161    -0.049522067    16.636325      1.4993428      21.108951      18.135667     -4.4726266      2376.5903      49.971532      47.796843      47.796843     -0.073909036   -0.069676395   -0.0049807699  -0.016130975   -0.063213134   -0.045660143    4859.1031      316935.8     
    608000   608            0.99867234     0.0024867858   16.63854       1.4979939      21.106852      18.136534     -4.4683112      2307.9957      49.981233      47.824419      47.824419      0.044094845   -0.0070750572  -0.029559431   -0.020909091    0.028201561    0.0083016853   4890.7381      316868.35    
    612000   612            0.9986275      0.037483249    16.624021      1.4979266      21.10304       18.121947     -4.4790191      3822.5043      49.990935      47.76953       47.76953      -0.019983512    0.037479154    0.094954106    0.049918657   -0.0098018742   0.031493073    4922.9766      316840.2     
    616000   616            0.99959695     0.012272232    16.635835      1.4993808      21.10348       18.135216     -4.4676452      2483.2176      50.000636      47.789066      47.789066      0.015687232    0.058372286   -0.037242823   -0.018308422    0.03257578    -0.01610927     4955.046       316801.19    
    620000   620            1.0007704      0.047646011    16.640328      1.5011409      21.106817      18.141469     -4.4664884      1862.8908      50.010337      47.793193      47.793193     -0.016568454    0.022781019    0.13672547    -0.0030071077   0.029677942   -0.023371644    4986.9841      316753.92    
    624000   624            1.0030687      0.022601785    16.638319      1.5045884      21.106345      18.142907     -4.4680264      1735.4813      50.020039      47.774241      47.774241     -0.033447413    0.068414133    0.032838635    0.016657451    0.013614563   -0.016428218    5019.0431      316714.49    
    628000   628            1.0035896      0.096109362    16.628583      1.5053697      21.105238      18.133953     -4.4766547      2673.3088      50.02974       47.747207      47.747207      0.071473104    0.10276463     0.11409036     0.056067219    0.012809052    0.0074477276   5051.2417      316683.9     
    632000   632            1.002942      -0.012373405    16.629624      1.5043983      21.105379      18.134022     -4.4757552      2686.5977      50.039441      47.74547       47.74547       0.025259377   -0.038534176   -0.023845416   -0.071904213    0.017494067    0.029412362    5083.5469      316659.93    
    636000   636            1.0060798     -0.032110515    16.635165      1.509105       21.105768      18.14427      -4.4706029      1656.4454      50.049143      47.766899      47.766899     -0.012492457   -0.10482271     0.020983619   -0.045305318   -0.025949714   -0.01956511     5115.6789      316625.13    
    640000   640            1.0018765      0.00061483016  16.63496       1.5028         21.10682       18.13776      -4.4718593      2343.874       50.058844      47.763397      47.763397      0.0025243639  -0.024615083    0.02393521    -0.027758509    0.0041820753   0.017897738    5147.8136      316590.54    
    644000   644            1.000945       0.030542884    16.628849      1.5014029      21.104039      18.130252     -4.4751899      3133.3334      50.068545      47.733748      47.733748      0.029632808    0.015306639    0.046689205   -0.013099431    0.019124214    0.011944221    5180.1568      316568.71    
    648000   648            0.9939268      0.0070415549   16.626955      1.4908757      21.105535      18.117831     -4.4785798      4426.5719      50.078247      47.731172      47.731172     -0.0027190199   0.031778913   -0.0079352289   0.018572711   -0.021595059    0.066285617    5212.6958      316558.65    
    652000   652            0.99762687    -0.03174624     16.635941      1.4964257      21.109744      18.132366     -4.473803       2957.1706      50.087948      47.745733      47.745733     -0.076738607    0.015789885   -0.034289999    0.015510051   -0.00027980394 -0.015665377    5244.957       316531.55    
    656000   656            1.0008932     -0.011599186    16.639621      1.5013251      21.105852      18.140946     -4.4662311      2098.0669      50.097649      47.766113      47.766113      0.0042509041  -0.033255738   -0.0057927235  -0.086452938   -0.028978976   -0.039366461    5277.2343      316505.35    
    660000   660            0.99979793     0.051085278    16.6351        1.4996823      21.105531      18.134782     -4.4704318      2749.4961      50.107351      47.745919      47.745919      0.020621976    0.04245055     0.090183307    0.025495042   -0.0024135121  -0.021593544    5309.0529      316451.73    
    664000   664            1.0021601     -0.034266252    16.626783      1.5032255      21.10594       18.130008     -4.4791572      3258.4078      50.117052      47.705249      47.705249     -0.019400605   -0.050543159   -0.032854992   -0.038230988    0.003089342   -0.002717552    5341.6711      316445.74    
    668000   668            1.0040254     -0.044264035    16.637014      1.5060234      21.110723      18.143037     -4.4737092      1943.3572      50.126753      47.71174       47.71174      -0.10350709    -0.0075249622  -0.021760055   -0.0026487496  -0.026746678    0.013271516    5373.5748      316397.37    
    672000   672            1.0006848      0.016159508    16.637777      1.5010126      21.106567      18.13879      -4.4687898      2398.6095      50.136454      47.722595      47.722595      0.020231016   -0.012656965    0.040904474   -0.012191541    0.029860805   -0.014173103    5405.3946      316344.29    
    676000   676            0.9983228     -0.012000292    16.632157      1.4974696      21.107106      18.129627     -4.4749492      3357.6593      50.146156      47.695396      47.695396      0.0048319743   0.015329204   -0.056162056    0.015785326    0.026494051   -0.01048223     5437.333       316298.35    
    680000   680            0.99525909     0.0011259799   16.62631       1.4928741      21.102667      18.119184     -4.476357       4447.6653      50.155857      47.693074      47.693074      0.012407787   -0.0035873714  -0.005442476   -0.03843272     0.016229253   -0.032086575    5469.882       316287.88    
    684000   684            0.99927437    -0.025615398    16.630687      1.4988969      21.111474      18.129584     -4.4807874      3401.4983      50.165558      47.681803      47.681803      0.011101104   -0.03752752    -0.050419777   -0.016599723    0.02468244    -0.0049832577   5502.3115      316270.29    
    688000   688            1.000402       0.017958448    16.633004      1.5005884      21.107674      18.133592     -4.4746702      3010.3145      50.17526       47.712182      47.712182      0.024658177    0.024484582    0.0047325859  -0.0052249809  -0.014454127    0.014352315    5534.488       316238.07    
    692000   692            0.99943542    -0.069726137    16.645205      1.4991385      21.110423      18.144344     -4.4652181      1928.6667      50.184961      47.717477      47.717477     -0.04691402    -0.10686807    -0.055396318   -0.0048398348   0.01909349     0.0044474086   5566.72        316209.01    
    696000   696            1.0004114     -0.0072974262   16.629111      1.5006024      21.104486      18.129714     -4.4753753      3447.8342      50.194662      47.680702      47.680702      0.006313542   -0.010234167   -0.017971653    0.017559835    0.013580241    0.014195991    5598.9007      316177       
    700000   700            1.0004718     -0.020292904    16.632211      1.5006931      21.106335      18.132904     -4.4741235      3140.9867      50.204364      47.681282      47.681282     -0.029272158   -0.00031177613 -0.031294777    0.019993954   -0.037026938   -0.0055993013   5631.4367      316164.94    
    704000   704            1.0021793      0.027853721    16.641657      1.5032543      21.111325      18.144911     -4.4696678      1930.5767      50.214065      47.70111       47.70111       0.073482561    5.4337704e-06  0.010073169   -0.0023985652  -0.035706436    0.045240643    5663.38        316119.58    
    708000   708            0.99926473    -0.0014295447   16.6304        1.4988825      21.103532      18.129283     -4.4731317      3551.8007      50.223766      47.684267      47.684267      0.015253789   -0.025176482    0.0056340581   0.007971715    0.0021008125   0.010422027    5695.093       316061.58    
    712000   712            0.99577293     0.0027741275   16.637679      1.4936448      21.105454      18.131323     -4.4677755      3362.5527      50.233468      47.697485      47.697485      0.042194455    0.009254376   -0.043126448   -0.015716119    0.0078587097  -0.022718065    5727.0152      316015.41    
    716000   716            0.99771167    -0.044802107    16.644471      1.4965529      21.11112       18.141023     -4.4666497      2388.4639      50.243169      47.698881      47.698881     -0.030284426   -0.040673778   -0.063448116    0.0021872239  -0.032978481    0.012588162    5759.5255      316001.68    
    720000   720            0.99641304    -0.027935316    16.63761       1.494605       21.104374      18.132215     -4.4667636      3311.255       50.25287       47.69044       47.69044      -0.038336857   -0.046246253    0.00077716237 -0.012442714   -0.0034003092   0.0097135854   5791.4842      315957.64    
    724000   724            1.0008354     -0.019457869    16.626773      1.5012385      21.104546      18.128011     -4.4777733      3761.4685      50.262572      47.661987      47.661987     -0.020183361    0.012435961   -0.050626205    0.01375748     0.046478892    0.0096067136   5823.4985      315916.75    
    728000   728            1.0004049     -0.001101236    16.635675      1.5005927      21.104833      18.136268     -4.4691583      2935.3527      50.272273      47.667016      47.667016     -0.036961128   -0.0065989609   0.040256381   -0.034919155    0.055815268   -0.021208443    5855.8285      315892.99    
    732000   732            1.0025522      0.0045133997   16.639758      1.5038137      21.106829      18.143572     -4.4670702      2206.5805      50.281974      47.670583      47.670583      0.012437348   -0.019498219    0.020601071   -0.0010819642   0.00437427    -0.018210395    5887.834       315851.73    
    736000   736            1.0013314      0.031726587    16.628482      1.5019825      21.103135      18.130464     -4.4746535      3570.4935      50.291676      47.640928      47.640928      0.00029807633  0.014266607    0.080615078   -0.024269135   -0.0018288015   0.019084964    5920.046       315821.59    
    740000   740            1.000843       0.02132557     16.63307       1.5012498      21.108903      18.13432      -4.4758328      3195.6298      50.301377      47.619194      47.619194      0.0049963265   0.032818608    0.026161776    0.027218549   -0.0084614712   0.049502905    5952.423       315800.17    
    744000   744            1.0046718     -0.0014479799   16.637702      1.506993       21.108463      18.144695     -4.4707607      2151.9757      50.311078      47.647062      47.647062     -0.0016445642  -0.017181697    0.014482321    0.012093369   -0.042567671    0.030132059    5985.0036      315789.39    
    748000   748            1.0061884      0.0031607963   16.635761      1.5092678      21.10654       18.145029     -4.4707792      2137.6949      50.32078       47.629075      47.629075     -0.073012993    0.069409808    0.013085574    0.019832013    0.017782601   -0.0088497394   6017.5441      315776.26    
    752000   752            0.99979421    -0.021835342    16.63571       1.4996767      21.107498      18.135387     -4.4717876      3146.0111      50.330481      47.623754      47.623754     -0.021969954   -0.028620674   -0.014915397   -0.031720591    0.049771664   -0.049060521    6050.0639      315761.85    
    756000   756            0.99549858    -0.020730765    16.636198      1.4932333      21.106653      18.129432     -4.4704543      3776.3358      50.340182      47.62929       47.62929      -0.024363524    0.023819659   -0.061648432    0.038186148    0.0040752474   0.0035070628   6082.4461      315740.1     
    760000   760            0.99953141    -0.017367734    16.637313      1.4992825      21.108791      18.136595     -4.4714784      3062.1391      50.349884      47.635653      47.635653     -0.021526421   -0.050674226    0.020097446    0.01766004    -0.017724008   -0.023146198    6114.7056      315711.9     
    764000   764            1.0007986     -0.016756593    16.64306       1.5011832      21.109567      18.144243     -4.4665068      2298.5729      50.359585      47.638525      47.638525     -0.030481621   -0.018811654   -0.00097650509  0.013728019    0.034833517    0.0093467473   6146.6024      315665.04    
    768000   768            0.99884779     0.05767654     16.636028      1.4982571      21.109947      18.134285     -4.4739194      3339.2574      50.369286      47.583737      47.583737      0.041749312    0.091319427    0.03996088     0.01983696     0.013265798    0.010920435    6178.778       315632.58    
    772000   772            1.0017192      0.055380395    16.626289      1.5025642      21.105054      18.128853     -4.4787659      3915.7736      50.378988      47.562635      47.562635      0.033917293    0.058253161    0.07397073     0.0036030882  -0.046809877   -0.01259586     6210.9354      315599.19    
    776000   776            1.0023852      0.015892797    16.626658      1.5035632      21.109593      18.130221     -4.482935       3795.269       50.388689      47.569057      47.569057      0.018636641   -0.028474852    0.057516602    0.016957773    0.021248119    0.0097194957   6242.594       315540.6     
    780000   780            1.0032781     -0.047116711    16.636646      1.5049025      21.109217      18.141549     -4.4725714      2654.3116      50.39839       47.591435      47.591435     -0.05428041    -0.027352503   -0.059717222   -0.018602027    0.0087165105   0.0055178934   6274.5315      315496.31    
    784000   784            1.0051805      0.0035822859   16.623959      1.5077561      21.103865      18.131715     -4.479906       3681.788       50.408092      47.565267      47.565267     -0.018590368   -0.0050719275   0.034409154   -0.010138653    0.022929156   -0.00033295208  6306.377       315447.55    
    788000   788            1.0007162      0.0030844111   16.62404       1.5010596      21.107409      18.125099     -4.4833689      4379.2609      50.417793      47.541466      47.541466      0.01945395     0.020174399   -0.030375115    0.034208271   -0.032769759   -0.0010964422   6338.1033      315393.03    
    792000   792            1.0026442      0.013872866    16.6326        1.5039516      21.110514      18.136552     -4.477914       3225.3715      50.427494      47.577791      47.577791     -0.034946916    0.032085042    0.044480472   -0.02680416    -0.0211724      0.00082574817  6369.4388      315319.39    
    796000   796            0.99812814    -0.037743623    16.636256      1.4971776      21.109056      18.133433     -4.4728008      3564.8335      50.437196      47.584038      47.584038     -0.099062132   -0.0072692383  -0.0068994989  -0.034377397    0.028187556    0.034324347    6400.3661      315226.07    
    800000   800            0.99547631    -0.030511659    16.626972      1.4931999      21.105386      18.120171     -4.4784147      4943.7573      50.446897      47.555088      47.555088      0.012059455   -0.081888391   -0.021706039   -0.022183911    0.026983097    0.036189884    6431.3999      315138.59    
    804000   804            0.99584973    -0.047750054    16.632193      1.49376        21.107432      18.125953     -4.4752387      4371.4977      50.456598      47.573228      47.573228     -0.043145404   -0.051790927   -0.04831383     0.02574065     0.035712397   -0.0544105      6462.9945      315079.02    
    808000   808            0.99915622    -0.034518184    16.636717      1.4987197      21.103449      18.135436     -4.4667327      3419.6378      50.4663        47.589276      47.589276     -0.059021122   -0.011623644   -0.032909786   -0.012848189   -0.021466578    0.031280441    6494.3         315005.7     
    812000   812            1.0018049     -0.07214895     16.641063      1.5026927      21.106904      18.143756     -4.465841       2586.9936      50.476001      47.594136      47.594136     -0.040542689   -0.15237773    -0.023526428    0.0088074333  -0.029479331    0.026368823    6525.731       314938.85    
    816000   816            1.0061077      0.019526486    16.635925      1.5091468      21.107549      18.145072     -4.4716243      2472.1556      50.485702      47.558109      47.558109      0.036448477   -0.0056945512   0.027825532    0.00042654371  0.04509287    -0.046949313    6557.2861      314878.31    
    820000   820            0.99909639    -0.027641961    16.631846      1.49863        21.106526      18.130476     -4.4746804      3987.8439      50.495404      47.55762       47.55762      -0.02608122    -0.041752582   -0.015092082    0.048637716   -0.005513953   -0.00036123927  6588.6281      314807.86    
    824000   824            1.0040167     -0.0068124477   16.632186      1.5060104      21.106151      18.138197     -4.4739651      3216.7442      50.505105      47.548297      47.548297     -0.027562516   -0.010932611    0.018057784   -0.013321793    0.023161717    0.0054138539   6619.7946      314729.46    
    828000   828            0.99838013     0.029518472    16.642284      1.4975556      21.109216      18.13984      -4.4669315      3068.8513      50.514806      47.541561      47.541561      0.028213332    0.024191868    0.036150216   -0.030095602    0.011293478   -0.030350832    6651.0102      314653.83    
    832000   832            0.99979647     0.069356095    16.63553       1.4996801      21.106196      18.13521      -4.4706657      3563.0993      50.524508      47.528402      47.528402      0.086493446    0.047676788    0.073898052    0.081300023   -0.027454518   -0.067072946    6682.6063      314596.54    
    836000   836            1.0013103      0.03232826     16.636721      1.5019507      21.106046      18.138672     -4.469325       3228.2144      50.534209      47.527159      47.527159      0.026554036    0.053130734    0.01730001     0.01271944    -0.0037161922  -0.027759923    6713.7072      314516.3     
    840000   840            1.0059617     -0.016234793    16.646046      1.5089278      21.109297      18.154974     -4.4632506      1577.5235      50.54391       47.565883      47.565883      0.03610489    -0.02726033    -0.057548938    0.0020440177   0.036542766    0.028114565    6744.6314      314428.29    
    844000   844            1.0053403      0.0087696058   16.637474      1.5079957      21.108404      18.14547      -4.4709299      2571.5752      50.553612      47.514457      47.514457     -0.0089903624   0.069259798   -0.033960618   -0.0042150955  -0.011732831    0.019351431    6776.008       314361.81    
    848000   848            0.99687817     0.010321501    16.63975       1.4953027      21.107604      18.135053     -4.4678541      3658.9815      50.563313      47.531273      47.531273      0.067709336   -0.021210447   -0.015534386   -0.025270358    0.01204824     0.00011105881  6807.1783      314286.14    
    852000   852            0.99906458    -0.031346024    16.639902      1.4985823      21.109314      18.138484     -4.4694118      3326.6715      50.573014      47.535213      47.535213     -0.04595233    -0.041137013   -0.0069487282   0.0230331     -0.01658431    -0.052200582    6838.385       314212.55    
    856000   856            1.0025178     -0.034004918    16.642364      1.5037621      21.106898      18.146126     -4.4645337      2563.2522      50.582716      47.557104      47.557104      0.021392043   -0.062609251   -0.060797545   -0.034718525    0.0056325677   0.031308996    6870.0676      314161.13    
    860000   860            0.99842105    -0.011258612    16.633091      1.497617       21.107385      18.130708     -4.4742949      4163.5304      50.592417      47.491177      47.491177     -0.033749825   -0.018596316    0.018570305    0.029398698    0.016515285    0.017062284    6901.9829      314120.48    
    864000   864            0.99835184    -0.036543363    16.63406       1.4975132      21.105085      18.131573     -4.4710248      4094.5666      50.602118      47.519581      47.519581     -0.022023808   -0.03504896    -0.052557321   -0.014562346   -0.035164612   -0.00080979612  6934.02        314085.42    
    868000   868            1.0005194      0.015093486    16.640555      1.5007645      21.106985      18.141319     -4.4664301      3115.8004      50.611819      47.526104      47.526104      0.022616196    0.032371244   -0.0097069827   0.0014936344   0.01774476     0.0092717442   6965.2486      314013.95    
    872000   872            0.99810276    -0.044076505    16.638365      1.4971395      21.107368      18.135504     -4.4690034      3731.4094      50.621521      47.519476      47.519476     -0.056945858   -0.024730353   -0.050553304    0.014446561   -0.031422691    0.001697711    6996.8168      313958.08    
    876000   876            1.0015119     -0.006985362    16.635231      1.5022532      21.108029      18.137484     -4.4727979      3548.3397      50.631222      47.471304      47.471304     -0.052641549    0.01428381     0.017401654   -0.015187986    0.0078547565  -0.0068442602   7028.6661      313914.99    
    880000   880            1.0008112     -0.022443582    16.637901      1.5012021      21.108122      18.139104     -4.470221       3401.9575      50.640923      47.490064      47.490064     -0.020351994   -0.051580249    0.0046014969   0.03068857    -0.018689455   -0.065822911    7060.2082      313858.35    
    884000   884            0.99930292    -0.04719267     16.636574      1.4989398      21.106051      18.135514     -4.469477       3789.7327      50.650625      47.497346      47.497346     -0.032563244   -0.094300311   -0.014714455    0.010187292    0.0044071442   0.042880467    7092.0176      313813.75    
    888000   888            1.0012292     -0.0090151974   16.632205      1.5018292      21.107357      18.134034     -4.4751517      3961.5177      50.660326      47.467473      47.467473     -0.053283943    0.032079369   -0.005841018    0.0073155538  -0.0091424215  -0.010099235    7123.9431      313774.39    
    892000   892            1.0007264     -0.0025769461   16.644799      1.501075       21.109752      18.145874     -4.4649529      2768.1828      50.670027      47.477779      47.477779      0.015283513    0.027979684   -0.050994035   -0.0367245     -0.015198139   -0.017491826    7155.4265      313715.72    
    896000   896            1.0010641      0.041960608    16.636671      1.5015815      21.105923      18.138252     -4.4692522      3569.1829      50.679729      47.456427      47.456427     -0.039234762    0.08790978     0.077206805   -0.0068027053   0.023692822    0.0095027578   7187.2934      313674.02    
[...]
  39768000   39768          1.0032685     -0.098320325    16.646078      1.5048881      21.107908      18.150966     -4.4618302      124402.66      144.95722      28.088505      28.088505     -0.37553427     0.073120364    0.0074529283  -0.047040052    0.039860536    0.021344836    357712.81      2086.838     
  39772000   39772          0.99992176    -0.15916275     16.649731      1.499868       21.111722      18.149599     -4.4619905      124552.58      144.96692      28.099184      28.099184     -0.42156504    -0.061960084    0.0060368806   0.023217774   -0.015866059    0.032482948    357751.45      2050.8732    
  39776000   39776          0.99908753    -0.16152823     16.64589       1.4986167      21.108872      18.144507     -4.4629818      125084.21      144.97662      28.099764      28.099764     -0.42300941    -0.011024201   -0.050551087   -0.0058541539  -0.036389378    0.0016533516   357789.56      2014.905     
  39780000   39780          0.99903532    -0.14047655     16.649749      1.4985384      21.107459      18.148287     -4.4577097      124706.21      144.98632      28.1101        28.1101       -0.362468      -0.012155396   -0.046806268    0.021411157   -0.0046044682  -0.0087576856   357827.64      1978.9362    
  39784000   39784          0.99823856    -0.15730944     16.645151      1.4973432      21.106169      18.142494     -4.4610183      125309.73      144.99602      28.094755      28.094755     -0.41380879     0.021534689   -0.079654234   -0.022507552   -0.034521652    0.061809985    357865.5       1942.9657    
  39788000   39788          0.99729984    -0.11998439     16.640081      1.4959352      21.1077        18.136016     -4.4676193      125983.25      145.00572      28.084187      28.084187     -0.4304051      0.025155401    0.045296535    0.032016832    0.035683482    0.018851121    357903.51      1906.9957    
  39792000   39792          1.001443      -0.17151788     16.648519      1.5021498      21.111422      18.150668     -4.4629029      124491.25      145.01543      28.087081      28.087081     -0.46629588    -0.068076263    0.019818511   -0.031985318    0.0050313967  -0.00047528684  357942.14      1871.0285    
  39796000   39796          1.0054823     -0.064082019    16.641961      1.5082088      21.104715      18.15017      -4.4627543      124552.07      145.02513      28.083143      28.083143     -0.29078373     0.02060159     0.077936079    0.023857028   -0.013978863   -0.0076721239   357980.56      1835.0597    
  39800000   39800          0.99568287    -0.1546508      16.643748      1.4935097      21.106819      18.137258     -4.4630711      125885.33      145.03483      28.085936      28.085936     -0.41717667    -0.0072708849  -0.03950486    -0.031996645   -0.058907087    0.0019162717   358018.57      1799.0883    
  39804000   39804          0.99894421    -0.066007923    16.646691      1.4984017      21.110672      18.145093     -4.4639809      125091.8       145.04453      28.083089      28.083089     -0.32566656     0.050647205    0.076995589   -0.0018784927   0.0044494822  -0.0083425611   358056.97      1763.1184    
  39808000   39808          0.99930778    -0.13036966     16.658966      1.498947       21.107496      18.157913     -4.44853        123787.65      145.05423      28.1141        28.1141       -0.35652794    -0.019589334   -0.014991706   -0.0074688862  -0.052216957    0.0089637172   358094.98      1727.1462    
  39812000   39812          0.99849296    -0.12016852     16.648666      1.4977248      21.108382      18.146391     -4.4597153      124978.17      145.06393      28.094826      28.094826     -0.35316816    -0.0036528434  -0.0036845472   0.011788708   -0.0028936658   0.017911951    358133.22      1691.1747    
  39816000   39816          1.0045328     -0.13103372     16.644379      1.5067844      21.107332      18.151163     -4.4629533      124498.94      145.07363      28.075236      28.075236     -0.32086828    -0.044520945   -0.027711925    0.033977071    0.0075724406  -0.0022844384   358171.52      1655.2029    
  39820000   39820          1.0007564     -0.064355693    16.646434      1.50112        21.110442      18.147554     -4.4640081      124878.3       145.08334      28.079215      28.079215     -0.28148197     0.064958216    0.02345667    -0.032726517    0.0074267734   0.009417977    358210         1619.2315    
  39824000   39824          0.99865586    -0.15434077     16.639902      1.4979692      21.107243      18.137872     -4.4673411      125880.5       145.09304      28.07041       28.07041      -0.42514272     0.0073347108  -0.045214309   -0.04204752     0.024680719   -0.037562855    358248.47      1583.2596    
  39828000   39828          1.001381      -0.14623996     16.647616      1.5020568      21.1092        18.149673     -4.4615837      124680.69      145.10274      28.094869      28.094869     -0.41949449     0.0097391874  -0.028964587    0.039481521   -0.0049805749  -0.035854591    358286.4       1547.2849    
  39832000   39832          1.0022608     -0.12236128     16.648187      1.5033766      21.106372      18.151563     -4.4581853      124496.48      145.11244      28.09231       28.09231      -0.36432084     0.024213818   -0.026976832    0.0019586635  -0.013972617    0.029320825    358324.87      1511.312     
  39836000   39836          0.99524405    -0.16506155     16.647898      1.4928515      21.105797      18.140749     -4.4578994      125614.8       145.12214      28.094189      28.094189     -0.38512713    -0.049354848   -0.06070267     0.019816366   -0.011258904    0.04701802     358363.15      1475.3378    
  39840000   39840          0.99229556    -0.12257743     16.643797      1.4884288      21.108596      18.132225     -4.464799       126498.33      145.13184      28.07392       28.07392      -0.39686398     0.046238054   -0.017106368   -0.0068134227   0.014267355   -0.033035354    358401.25      1439.3624    
  39844000   39844          0.99669088    -0.12521156     16.649909      1.4950217      21.109274      18.144931     -4.4593651      125205.79      145.14154      28.084475      28.084475     -0.33504706     0.022332855   -0.062920469    0.0049808999  -0.0087785782   0.0048129871   358440.04      1403.3894    
  39848000   39848          0.99758286    -0.18540916     16.655307      1.4963597      21.112779      18.151666     -4.4574726      124525.08      145.15124      28.089934      28.089934     -0.42763105    -0.083732116   -0.044864313   -0.0026771054   0.01375425    -0.019558735    358478.45      1367.4143    
  39852000   39852          0.99874074    -0.14374819     16.658071      1.4980965      21.11454       18.156168     -4.4564691      124073.47      145.16095      28.092219      28.092219     -0.39403833     0.044548201   -0.081754443   -0.015204746    0.0020998656   0.0034319983   358517.08      1331.4395    
  39856000   39856          0.99835748    -0.1297072      16.647436      1.4975216      21.107039      18.144958     -4.4596027      125231.78      145.17065      28.092412      28.092412     -0.38235853     0.026768258   -0.033531333    0.043457196   -0.0007835744   0.057021096    358555.38      1295.463     
  39860000   39860          0.9995198     -0.1813545      16.643499      1.4992651      21.103863      18.142764     -4.4603646      125466.22      145.18035      28.090326      28.090326     -0.43517504    -0.07841209    -0.030476371   -0.018613545   -0.066018239    0.014745751    358593.36      1259.485     
  39864000   39864          1.0026211     -0.10460453     16.651498      1.503917       21.108057      18.155415     -4.4565588      124179.18      145.19005      28.090867      28.090867     -0.37257067     0.036136822    0.022620269    0.0024669574   0.01793452     0.008583686    358631.56      1223.5072    
  39868000   39868          0.99951196    -0.11811019     16.649714      1.4992533      21.107906      18.148968     -4.4581914      124850.07      145.19975      28.08139       28.08139      -0.38316068    -0.014946662    0.04377676     0.00071129993 -0.030528741    0.046128452    358669.47      1187.5281    
  39872000   39872          0.99875313    -0.13044816     16.639051      1.4981151      21.105695      18.137166     -4.4666438      126069.29      145.20945      28.066256      28.066256     -0.38452522    -0.019155338    0.012336067    0.0050244511   0.043397022   -0.0095375823   358707.89      1151.5502    
  39876000   39876          0.99776178    -0.1562172      16.647138      1.4966281      21.10703       18.143766     -4.4598916      125402.78      145.21915      28.082695      28.082695     -0.42378836    -0.01328151    -0.031581738   -0.0033205374   0.034895542   -0.045569306    358745.89      1115.5705    
  39880000   39880          0.99687338    -0.15361993     16.655442      1.4952955      21.111302      18.150737     -4.4558598      124698.36      145.22886      28.083075      28.083075     -0.39672689    -0.018361043   -0.045771858    0.0065969269   0.017297562   -0.032652902    358784.2       1079.5914    
  39884000   39884          1.0001066     -0.17420363     16.64183       1.5001452      21.109526      18.141975     -4.4676966      125605.79      145.23856      28.073814      28.073814     -0.39119788    -0.082257325   -0.04915569     0.032401882   -0.004703005    0.020530613    358822.81      1043.6126    
  39888000   39888          0.99709833    -0.070592639    16.642438      1.4956329      21.105776      18.138071     -4.4633376      126015.47      145.24826      28.058348      28.058348     -0.33004113     0.071500498    0.046762718   -0.0014056078   0.010745087    0.047325694    358861.08      1007.6324    
  39892000   39892          1.0002466     -0.12734364     16.644813      1.5003552      21.106179      18.145168     -4.4613665      125297.91      145.25796      28.066461      28.066461     -0.38113479     0.0051688944  -0.0060650257   0.048400327   -0.027587082   -0.016310927    358899.69      971.65262    
  39896000   39896          1.0006966     -0.10893537     16.651552      1.5010303      21.113124      18.152582     -4.4615719      124547.79      145.26766      28.066508      28.066508     -0.35150918    -0.0080761491   0.032779224    0.0052379173   0.029101883   -0.020146479    358938.07      935.67173    
  39900000   39900          1.001037      -0.17778416     16.660775      1.5015409      21.115862      18.162316     -4.4550867      123559.78      145.27736      28.075007      28.075007     -0.41043812    -0.0981371     -0.024777266    0.0037654739  -0.022762926   -0.00024373069  358976.34      899.69007    
  39904000   39904          1.0010936     -0.054044015    16.644644      1.5016257      21.111301      18.14627      -4.4666569      125214.16      145.28706      28.05191       28.05191      -0.26816444     0.047392063    0.058640327    0.0033726945  -0.030747309   -0.016055551    359014.72      863.70823    
  39908000   39908          1.000427      -0.12524435     16.638824      1.5006258      21.108304      18.13945      -4.46948        125922.52      145.29676      28.050995      28.050995     -0.32203064    -0.039724211   -0.013978192   -0.029589517    0.035056477   -0.022789227    359053.22      827.72617    
  39912000   39912          1.0052788     -0.17271524     16.642967      1.5079034      21.109001      18.150871     -4.4660331      124761.71      145.30647      28.065416      28.065416     -0.47883306    -0.035472623   -0.0038400241  -0.022318657    0.013121185   -0.023593428    359091.67      791.7435     
  39916000   39916          1.0038459     -0.098650214    16.645783      1.5057542      21.109149      18.151538     -4.4633653      124702.98      145.31617      28.067853      28.067853     -0.33217633     0.011863503    0.024362188   -0.047987604    0.049922625    0.0058073685   359130.04      755.76018    
  39920000   39920          0.99853808    -0.20452222     16.641768      1.4977925      21.106568      18.139561     -4.4648         125940.02      145.32587      28.06423       28.06423      -0.50106355    -0.059093979   -0.053409122   -0.020522484   -0.022888275    0.0022114294   359168.02      719.77559    
  39924000   39924          0.99662427    -0.15541761     16.654788      1.4949218      21.113051      18.14971      -4.4582628      124909.55      145.33557      28.075505      28.075505     -0.3772852     -0.032951125   -0.056016497    0.043866301    0.010172721   -0.0033881914   359206.18      683.79094    
  39928000   39928          1.0020999     -0.05046667     16.652135      1.5031352      21.110921      18.15527      -4.458786       124349.62      145.34527      28.061178      28.061178     -0.2959522      0.042445494    0.10210669     0.048875872   -0.020110238   -0.00062458298  359244.71      647.80653    
  39932000   39932          0.99899008    -0.12518963     16.646368      1.4984705      21.110711      18.144838     -4.4643435      125428.8       145.35497      28.056138      28.056138     -0.33220923    -0.012223036   -0.03113663     0.0369374     -0.0086457516   0.015695312    359283.21      611.82156    
  39936000   39936          0.99971007    -0.057536397    16.648853      1.4995505      21.112157      18.148403     -4.4633041      125072.91      145.36467      28.055584      28.055584     -0.258707       0.020198165    0.065899645   -0.022012744   -0.013159454    0.0054358748   359321.98      575.83651    
  39940000   39940          1.0004463     -0.077753869    16.657049      1.5006548      21.11077       18.157704     -4.4537213      124129.21      145.37438      28.064503      28.064503     -0.39231834     0.10453976     0.054516973   -0.032322853    0.010917303    0.015663017    359360.42      539.85041    
  39944000   39944          0.99753342    -0.14160393     16.644014      1.4962855      21.109218      18.140299     -4.4652037      125922.74      145.38408      28.054635      28.054635     -0.40173143    -0.014549626   -0.0085307311  -0.011757579    0.012101697    0.016184547    359398.96      503.86395    
  39948000   39948          0.9990544     -0.22037118     16.649461      1.498567       21.108237      18.148028     -4.4587754      125140.19      145.39378      28.077057      28.077057     -0.53775829    -0.050893427   -0.072461823    0.036840097    0.0034991823   0.040846713    359437.92      467.87753    
  39952000   39952          1.0046194     -0.093777148    16.648228      1.5069144      21.103414      18.155143     -4.4551857      124420.72      145.40348      28.070018      28.070018     -0.33627936     0.048687219    0.0062606976   0.0085200786  -0.029805504    0.021097729    359475.93      431.88938    
  39956000   39956          1.0027547     -0.090718526    16.644945      1.5041174      21.107843      18.149062     -4.4628984      125053.74      145.41318      28.057307      28.057307     -0.31086377     0.036806247    0.0019019475  -0.049170801    0.023113589    0.014495589    359514.5       395.90144    
  39960000   39960          1.001676      -0.1349148      16.642634      1.5024993      21.108191      18.145133     -4.4655572      125466.46      145.42288      28.045286      28.045286     -0.34602507    -0.036810467   -0.021908876   -0.004302286   -0.061504675    0.027135666    359552.51      359.91242    
  39964000   39964          1.0000622     -0.13902743     16.639065      1.5000787      21.105315      18.139144     -4.46625        126090.11      145.43258      28.041057      28.041057     -0.41389038    -0.011839462    0.0086475656   0.026310653   -0.0033594089   0.034704007    359590.22      323.92273    
  39968000   39968          1.0031424     -0.1659661      16.649917      1.504699       21.112556      18.154616     -4.4626389      124514.01      145.44228      28.054115      28.054115     -0.44984834    -0.030290543   -0.017759401    0.003346068    0.011479986    0.0068415309   359628.52      287.93317    
  39972000   39972          0.99994579    -0.10522065     16.645655      1.4999041      21.107897      18.145559     -4.4622421      125451.89      145.45199      28.0482        28.0482       -0.34250239     0.011287376    0.015553073   -0.039189533   -0.024586475   -0.0093944664   359666.88      251.94318    
  39976000   39976          1.0002412     -0.14199129     16.640988      1.5003472      21.107054      18.141335     -4.4660667      125894.43      145.46169      28.038375      28.038375     -0.36159196     0.00063332756 -0.065015235   -0.0036463611  -0.0086878914   0.026564582    359704.6       215.95233    
  39980000   39980          0.99974867    -0.13444592     16.647379      1.4996084      21.114121      18.146988     -4.4667416      125324.78      145.47139      28.042004      28.042004     -0.38546585    -0.0091014676  -0.008770441   -0.0064348422  -0.0060545231  -0.045968708    359742.83      179.96139    
  39984000   39984          0.99988935    -0.096508414    16.645452      1.4998194      21.107724      18.145271     -4.4622725      125510.31      145.48109      28.04623       28.04623      -0.38301663     0.071509596    0.021981789   -0.0039330304  -0.06065251    -0.021514075    359780.46      143.96977    
  39988000   39988          1.0028252     -0.098147106    16.646604      1.5042231      21.104796      18.150827     -4.4581913      124950.47      145.49079      28.0454        28.0454       -0.32557305    -0.0068479771   0.037979711    0.021274103   -0.011831297    0.038439347    359818.57      107.97796    
  39992000   39992          1.0050418     -0.094322205    16.650187      1.507548       21.108138      18.157735     -4.4579508      124252.48      145.50049      28.054326      28.054326     -0.34876239     0.029493437    0.036302336    0.0025911196  -0.02094037    -0.040044562    359857.03      71.985803    
  39996000   39996          0.99927048    -0.12707247     16.643864      1.4988911      21.106422      18.142755     -4.4625576      125797.5       145.51019      28.043754      28.043754     -0.32628425    -0.022621624   -0.032311539   -0.0041800926   0.030664762   -0.014631569    359895.49      35.993148    
  40000000   40000          1.0001349     -0.059538246    16.646085      1.5001877      21.107652      18.146273     -4.4615667      125446.66      145.5199       28.041951      28.041951     -0.19200941     0.041161762   -0.027767093    0.0031038107  -0.036320604   -0.028287005    359933.48      0            
Loop time of 359933 on 18 procs for 40000000 steps with 102500 atoms

Performance: 9601.774 tau/day, 111.132 timesteps/s
98.0% CPU use with 18 MPI tasks x 1 OpenMP threads

MPI task timing breakdown:
Section |  min time  |  avg time  |  max time  |%varavg| %total
---------------------------------------------------------------
Pair    | 2.246e+05  | 2.2931e+05 | 2.3833e+05 | 819.1 | 63.71
Bond    | 11931      | 12615      | 14242      | 601.9 |  3.50
Neigh   | 12829      | 12848      | 12871      |  10.9 |  3.57
Comm    | 40494      | 49904      | 55372      |1877.0 | 13.86
Output  | 942.62     | 942.66     | 942.69     |   0.1 |  0.26
Modify  | 49231      | 51807      | 53893      | 816.6 | 14.39
Other   |            | 2501       |            |       |  0.69

Nlocal:        5694.44 ave        5770 max        5636 min
Histogram: 1 0 3 3 6 3 1 0 0 1
Nghost:        9975.56 ave       10048 max        9903 min
Histogram: 1 2 1 1 6 2 0 1 1 3
Neighs:         224672 ave      229471 max      220402 min
Histogram: 3 0 2 5 0 3 1 1 1 2

Total # of neighbors = 4044095
Ave neighs/atom = 39.454585
Ave special neighs/atom = 6.627161
Neighbor list builds = 1331915
Dangerous builds = 0

# GENERATION RESTART
write_restart ./out.deform.restart
System init for write_restart ...
Generated 0 of 36 mixed pair_coeff terms from geometric mixing rule
write_data    ./out.deform.data pair ij
System init for write_data ...
Generated 0 of 36 mixed pair_coeff terms from geometric mixing rule
Total wall time: 99:58:55
