LAMMPS (15 Sep 2022)
OMP_NUM_THREADS environment is not set. Defaulting to 1 thread. (src/comm.cpp:98)
  using 1 OpenMP thread(s) per MPI task
# LAMMPS Script for deform
# Generated 12/17/2022

# INIT PARAMS & READ CONF
include   "/work_bgfs/h/harshad/simulation_9/neat_polymer/config_2/system.init"
# UNITS
units		lj
dimension	3
atom_style	bond

# INPUT FILE
pair_style	lj/cut 2.5
bond_style	fene
read_data /work_bgfs/h/harshad/simulation_9/neat_polymer/config_2/quiescent/thermal_replicates/5.npt.data
Reading data file ...
  orthogonal box = (-24.261665 -24.261665 -24.261665) to (24.261665 24.261665 24.261665)
  2 by 3 by 3 MPI processor grid
  reading atoms ...
  102500 atoms
  reading velocities ...
  102500 velocities
  scanning bonds ...
  2 = max bonds/atom
  reading bonds ...
  104500 bonds
Finding 1-2 1-3 1-4 neighbors ...
  special bond factors lj:    0        0        0       
  special bond factors coul:  0        0        0       
     4 = max # of 1-2 neighbors
     4 = max # of 1-3 neighbors
     8 = max # of 1-4 neighbors
    12 = max # of special neighbors
  special bonds CPU = 0.004 seconds
  read_data CPU = 1.281 seconds
include   "/work_bgfs/h/harshad/simulation_9/neat_polymer/config_2/system.settings"
# ATOM TYPE
mass  1  1.0 #backbone
mass  2  1.0 #endmer
mass  3  1.0 #crosslinker
mass  4  1.0 #outer shell
mass  5  1.0 #inner shell 2
mass  6  1.0 #inner-most shell
mass  7  1.0 #center bead
mass  8  1.0 #endmer post crosslinking
mass  9  1.0 #crosslinker post crosslinking

# BOND
bond_coeff * 30.0 1.50 1.0 1.0
special_bonds lj 0.0 1.0 1.0
Finding 1-2 1-3 1-4 neighbors ...
  special bond factors lj:    0        1        1       
  special bond factors coul:  0        0        0       
     4 = max # of 1-2 neighbors
     4 = max # of 1-3 neighbors
     8 = max # of 1-4 neighbors
    12 = max # of special neighbors
  special bonds CPU = 0.003 seconds

# PAIR
pair_coeff  1*9 1*9 1.0 1.0 2.5

pair_modify  shift yes
neigh_modify delay 1 check yes

# MAKE GROUPS
group polymer type 1 2 3 8 9
102500 atoms in group polymer
#group ins     type 1
#group strand  type 1 2 8
#group ends    type 2 8
#group xlinks  type 3 9
#group filler  type 4 5 6 7

# INPUTS FROM SBATCH
variable Temp          equal 1.0
variable gamma_total   equal 2.0
variable gamma_rate    equal 0.00005
variable dt            equal 0.001
variable Nfreq         equal 4000
variable Nrepeat_2     equal 100
variable Nevery_1      equal 1
variable Nrepeat_1     equal 1

variable Run           equal ${gamma_total}/${gamma_rate}/${dt}
variable Run           equal 2/${gamma_rate}/${dt}
variable Run           equal 2/5e-05/${dt}
variable Run           equal 2/5e-05/0.001

# RUN OPTIONS
run_style verlet
timestep  ${dt}
timestep  0.001

# RESTART
restart  ${Nfreq} cycle.1.restart cycle.2.restart
restart  4000 cycle.1.restart cycle.2.restart

## SAVE RESTARTS EVERY 10% EXTENSION
#variable RestFreq      equal 0.1/${gamma_rate}/${dt}
#restart  ${RestFreq} deform.*.restart
#
# COMPUTE ke/atom, pe/atom, pxx/atom, position and time-avg
compute     ke_atm          all     ke/atom
compute     p_atm           all     stress/atom NULL
compute     pe_atm          all     pe/atom
compute     ebond_atm       all     pe/atom bond
compute     posit_atm       all     property/atom x y z
fix         avg_ke_atm_1    all     ave/atom ${Nevery_1} ${Nrepeat_1} ${Nfreq} c_ke_atm
fix         avg_ke_atm_1    all     ave/atom 1 ${Nrepeat_1} ${Nfreq} c_ke_atm
fix         avg_ke_atm_1    all     ave/atom 1 1 ${Nfreq} c_ke_atm
fix         avg_ke_atm_1    all     ave/atom 1 1 4000 c_ke_atm
fix         avg_pxx_atm_1   all     ave/atom ${Nevery_1} ${Nrepeat_1} ${Nfreq} c_p_atm[*]
fix         avg_pxx_atm_1   all     ave/atom 1 ${Nrepeat_1} ${Nfreq} c_p_atm[*]
fix         avg_pxx_atm_1   all     ave/atom 1 1 ${Nfreq} c_p_atm[*]
fix         avg_pxx_atm_1   all     ave/atom 1 1 4000 c_p_atm[*]
fix         avg_pe_atm_1    all     ave/atom ${Nevery_1} ${Nrepeat_1} ${Nfreq} c_pe_atm
fix         avg_pe_atm_1    all     ave/atom 1 ${Nrepeat_1} ${Nfreq} c_pe_atm
fix         avg_pe_atm_1    all     ave/atom 1 1 ${Nfreq} c_pe_atm
fix         avg_pe_atm_1    all     ave/atom 1 1 4000 c_pe_atm
#fix         avg_posit_atm_1 all     ave/atom ${Nevery_1} ${Nrepeat_1} ${Nfreq} c_posit_atm[1] c_posit_atm[2] c_posit_atm[3]
dump        dump_1 all custom ${Nfreq} ${out_dir}traj.${Nevery_1}_${Nrepeat_1}_${Nfreq}.xyz mol type x y z f_avg_ke_atm_1 f_avg_pe_atm_1 f_avg_pxx_atm_1[*]
dump        dump_1 all custom 4000 ${out_dir}traj.${Nevery_1}_${Nrepeat_1}_${Nfreq}.xyz mol type x y z f_avg_ke_atm_1 f_avg_pe_atm_1 f_avg_pxx_atm_1[*]
dump        dump_1 all custom 4000 /shares_bgfs/dssimmons_data/harshad/deform/neat_polymer/config_2/5_deformwork_bgfs--h--harshad--simulation_9--neat_polymer--config_2--5_deform--traj.${Nevery_1}_${Nrepeat_1}_${Nfreq}.xyz mol type x y z f_avg_ke_atm_1 f_avg_pe_atm_1 f_avg_pxx_atm_1[*]
dump        dump_1 all custom 4000 /shares_bgfs/dssimmons_data/harshad/deform/neat_polymer/config_2/5_deformwork_bgfs--h--harshad--simulation_9--neat_polymer--config_2--5_deform--traj.1_${Nrepeat_1}_${Nfreq}.xyz mol type x y z f_avg_ke_atm_1 f_avg_pe_atm_1 f_avg_pxx_atm_1[*]
dump        dump_1 all custom 4000 /shares_bgfs/dssimmons_data/harshad/deform/neat_polymer/config_2/5_deformwork_bgfs--h--harshad--simulation_9--neat_polymer--config_2--5_deform--traj.1_1_${Nfreq}.xyz mol type x y z f_avg_ke_atm_1 f_avg_pe_atm_1 f_avg_pxx_atm_1[*]
dump        dump_1 all custom 4000 /shares_bgfs/dssimmons_data/harshad/deform/neat_polymer/config_2/5_deformwork_bgfs--h--harshad--simulation_9--neat_polymer--config_2--5_deform--traj.1_1_4000.xyz mol type x y z f_avg_ke_atm_1 f_avg_pe_atm_1 f_avg_pxx_atm_1[*]
dump_modify dump_1 append yes sort id

# COMPUTE a separate pe and ke for each group, AVG & SAVE
compute   pe_polymer    all reduce  sum c_pe_atm
compute   ke_polymer    all reduce  sum c_ke_atm
compute   ebond_polymer all reduce  sum c_ebond_atm
compute   pxx_polymer   all reduce  sum c_p_atm[1] c_p_atm[2] c_p_atm[3]
compute   pxy_polymer   all reduce  sum c_p_atm[4] c_p_atm[5] c_p_atm[6]
fix 		  avgEnergy     all     ave/time ${Nevery_1} ${Nrepeat_2} ${Nfreq} c_pe_polymer c_ke_polymer c_ebond_polymer c_pxy_polymer[1] c_pxy_polymer[2] c_pxy_polymer[3] file energy.avg.csv
fix 		  avgEnergy     all     ave/time 1 ${Nrepeat_2} ${Nfreq} c_pe_polymer c_ke_polymer c_ebond_polymer c_pxy_polymer[1] c_pxy_polymer[2] c_pxy_polymer[3] file energy.avg.csv
fix 		  avgEnergy     all     ave/time 1 100 ${Nfreq} c_pe_polymer c_ke_polymer c_ebond_polymer c_pxy_polymer[1] c_pxy_polymer[2] c_pxy_polymer[3] file energy.avg.csv
fix 		  avgEnergy     all     ave/time 1 100 4000 c_pe_polymer c_ke_polymer c_ebond_polymer c_pxy_polymer[1] c_pxy_polymer[2] c_pxy_polymer[3] file energy.avg.csv
fix       avgPxx_all    all     ave/time ${Nevery_1} ${Nfreq} ${Nfreq}     c_pxx_polymer[1] c_pxx_polymer[2] c_pxx_polymer[3]                                           file pxx.all.avg.csv
fix       avgPxx_all    all     ave/time 1 ${Nfreq} ${Nfreq}     c_pxx_polymer[1] c_pxx_polymer[2] c_pxx_polymer[3]                                           file pxx.all.avg.csv
fix       avgPxx_all    all     ave/time 1 4000 ${Nfreq}     c_pxx_polymer[1] c_pxx_polymer[2] c_pxx_polymer[3]                                           file pxx.all.avg.csv
fix       avgPxx_all    all     ave/time 1 4000 4000     c_pxx_polymer[1] c_pxx_polymer[2] c_pxx_polymer[3]                                           file pxx.all.avg.csv

# TIME-AVG Ly
variable Ly equal ly
fix       avgLy         all     ave/time ${Nevery_1} ${Nfreq} ${Nfreq}     v_Ly  file Ly.avg.csv
fix       avgLy         all     ave/time 1 ${Nfreq} ${Nfreq}     v_Ly  file Ly.avg.csv
fix       avgLy         all     ave/time 1 4000 ${Nfreq}     v_Ly  file Ly.avg.csv
fix       avgLy         all     ave/time 1 4000 4000     v_Ly  file Ly.avg.csv

# SIMULATION FIXES
fix  npt        all npt temp ${Temp} ${Temp} 2.0 y 0 0 5 z 0 0 5 couple yz
fix  npt        all npt temp 1 ${Temp} 2.0 y 0 0 5 z 0 0 5 couple yz
fix  npt        all npt temp 1 1 2.0 y 0 0 5 z 0 0 5 couple yz
fix  mom        all momentum 10000 linear 1 1 1
fix  deform     all deform 1 x erate ${gamma_rate} remap x units box
fix  deform     all deform 1 x erate 5e-05 remap x units box

# THERMO
variable  thermo_frq equal ${Nfreq}
variable  thermo_frq equal 4000
thermo    ${thermo_frq}
thermo    4000
thermo_style  custom step time temp press pe ke ebond etotal epair ecouple lx ly lz pxx pyy pzz pxy pxz pyz cpu cpuremain

# deform
run ${Run}
run 40000000
Generated 0 of 36 mixed pair_coeff terms from geometric mixing rule
Neighbor list info ...
  update: every = 1 steps, delay = 1 steps, check = yes
  max neighbors/atom: 2000, page size: 100000
  master list distance cutoff = 2.8
  ghost atom cutoff = 2.8
  binsize = 1.4, bins = 35 35 35
  1 neighbor lists, perpetual/occasional/extra = 1 0 0
  (1) pair lj/cut, perpetual
      attributes: half, newton on
      pair build: half/bin/newton
      stencil: half/bin/3d
      bin: standard
WARNING: Inconsistent image flags (src/domain.cpp:819)
Per MPI rank memory allocation (min/avg/max) = 12.77 | 12.78 | 12.78 Mbytes
   Step          Time           Temp          Press          PotEng         KinEng         E_bond         TotEng         E_pair        Ecouple           Lx             Ly             Lz            Pxx            Pyy            Pzz            Pxy            Pxz            Pyz            CPU          CPULeft    
         0   0              0.99928262     0.01425037     16.638883      1.4989093      21.105775      18.137792     -4.4668921      0              48.523331      48.523331      48.523331      0.049363043   -0.0018361602  -0.0047757718   0.016305465    0.0035604875  -0.01691727     0              0            
      4000   4              1.0011393      0.012938224    16.64065       1.5016943      21.110281      18.142345     -4.4696303     -446.00318      48.533035      48.518017      48.518017      0.015211994    0.048066181   -0.024463502   -0.0085536622   0.0047101476   0.0048168391   33.305305      333019.76    
      8000   8              1.0028744      0.036117334    16.634219      1.504297       21.106948      18.138516     -4.4727288     -33.341064      48.54274       48.49462       48.49462       0.035584987    0.027310015    0.045457      -0.0032172197   0.029153944   -0.0027717415   67.579392      337829.39    
     12000   12             1.0003457     -0.036855737    16.630315      1.5005039      21.107149      18.130819     -4.4768334      776.22629      48.552445      48.462141      48.462141     -0.033312537    0.010910983   -0.088165657   -0.0070314886   0.06090545     0.016559334    101.56939      338463.06    
     16000   16             0.99971159     0.04934846     16.63654       1.4995528      21.103695      18.136093     -4.4671554      256.27945      48.562149      48.503563      48.503563      0.077374895    0.060897661    0.0097728231   0.0097074289  -0.051042161   -0.020603846    135.18747      337833.5     
     20000   20             1.0022141      0.02437341     16.637814      1.5033065      21.111161      18.14112      -4.4733476     -238.63811      48.571854      48.477816      48.477816      0.019775354    0.026494713    0.026850163   -0.01645058    -0.067116638    0.010443794    168.82254      337476.25    
     24000   24             0.99854681     0.022663413    16.632587      1.4978056      21.108617      18.130393     -4.47603        881.23621      48.581559      48.456717      48.456717      0.0049158677   0.069965553   -0.0068911803   0.0020604668  -0.044172948   -0.032059806    202.82926      337845.94    
     28000   28             1.0040318      0.031858139    16.626932      1.506033       21.104807      18.132965     -4.477875       637.65658      48.591263      48.44834       48.44834       0.035186357    0.080283182   -0.019895121    0.015839873   -0.015879668   -0.022289549    236.5002       337620.92    
     32000   32             1.0022388      0.022098783    16.639327      1.5033436      21.109942      18.14267      -4.4706153     -336.68425      48.600968      48.46212       48.46212       0.058325788   -0.0038471967   0.011817758    0.003631556   -0.034269809    0.029906947    270.07294      337321.1     
     36000   36             1.0039633     -0.022754645    16.630369      1.5059303      21.106666      18.1363       -4.4762967      336.59253      48.610673      48.432885      48.432885     -0.02833665    -0.010841222   -0.029086063   -0.0043715112   0.005876494   -0.010749269    303.68715      337126.48    
     40000   40             0.99842639    -0.025113679    16.630719      1.497625       21.108062      18.128344     -4.477343       1172.7851      48.620377      48.452015      48.452015     -0.081274744    0.046686253   -0.040752547    0.0045244816  -0.034195274    0.027158014    337.80323      337465.43    
     44000   44             0.99859971     0.0091160198   16.639135      1.497885       21.106607      18.13702      -4.4674721      303.85319      48.630082      48.471992      48.471992      0.040174992   -0.007184271   -0.0056426611  -0.005634633   -0.025522535    0.019338501    372.64485      338395.4     
     48000   48             0.99811187     0.033252171    16.640566      1.4971532      21.105216      18.137719     -4.4646506      252.95533      48.639787      48.467383      48.467383      0.013268913   -0.0031437115   0.08963131     0.0062253596  -0.021728427   -0.0067953916   407.27368      338987.46    
     52000   52             0.99838448    -0.052932425    16.634305      1.4975621      21.103562      18.131867     -4.4692576      873.12935      48.649491      48.465743      48.465743     -0.039781269   -0.063221996   -0.055794009   -0.015319515    0.035832501    0.042821579    441.02274      338807.24    
     56000   56             0.99452703    -0.010961895    16.635488      1.491776       21.106979      18.127264     -4.471491       1365.7054      48.659196      48.464663      48.464663     -0.025626803   -0.02246632     0.015207439   -0.0038983723   0.018132255   -0.012227898    475.19735      338951.48    
     60000   60             1.0002512     -0.010656168    16.638985      1.5003622      21.106633      18.139347     -4.467648       148.04783      48.668901      48.463582      48.463582     -0.017166252    0.011664927   -0.02646718     0.00491222     0.016486386    0.042324431    508.53648      338515.78    
     64000   64             1.0012422      0.032273923    16.635491      1.5018486      21.105221      18.137339     -4.4697304      373.91291      48.678605      48.444597      48.444597      0.0081292202   0.047468229    0.041224319    0.040590357    0.00077486395  0.028700061    540.97009      337565.34    
     68000   68             0.99504549    -0.018309523    16.633272      1.4925537      21.102996      18.125826     -4.4697242      1574.364       48.68831       48.437355      48.437355     -0.03640203     0.0017222446  -0.020248784    0.0090481698  -0.039638785   -0.014560354    572.92691      336442.9     
     72000   72             1.0022459      0.054927871    16.636303      1.5033541      21.108449      18.139657     -4.4721459      177.41074      48.698015      48.414153      48.414153      0.047878152    0.066250842    0.050654619    0.0013664965   0.011764551    0.019560051    605.65955      335871.87    
     76000   76             0.99843261    -0.063089516    16.636583      1.4976343      21.108426      18.134217     -4.4718433      755.22639      48.707719      48.436712      48.436712     -0.058738469   -0.054165984   -0.076364095   -0.027563476   -0.0096684566   0.0040074418   638.03693      335170.88    
     80000   80             0.99555584    -0.0020191089   16.633924      1.4933192      21.103933      18.127243     -4.4700094      1490.5782      48.717424      48.419588      48.419588      0.027236777    0.0032286795  -0.036522783    0.024598834    0.0069089401  -0.028371504    671.31328      334985.33    
     84000   84             1.0011329      0.041978467    16.63506       1.5016848      21.103937      18.136745     -4.4688771      537.15081      48.727129      48.414954      48.414954      0.029753939    0.031596487    0.064584975   -0.0055115343  -0.018056869   -0.017318286    703.94298      334507       
     88000   88             0.99641398    -0.040759096    16.644708      1.4946064      21.107593      18.139315     -4.4628846      294.21444      48.736833      48.441204      48.441204     -0.02392642    -0.064525692   -0.033825176   -0.0073061409  -0.0037451155   0.0028350289   736.71363      334133.12    
     92000   92             0.99521523     0.027091765    16.636339      1.4928083      21.105256      18.129147     -4.4689175      1356.8037      48.746538      48.408793      48.408793      0.026288326    0.0068003518   0.048186617   -0.011085616   -0.00091885259 -0.011877186    769.18258      333658.03    
     96000   96             0.99868275     0.0097873276   16.632707      1.4980095      21.108159      18.130717     -4.4754519      1216.5311      48.756243      48.378695      48.378695      0.052052361   -0.028812515    0.0061221362   0.037983383    0.021470255   -0.04014142     801.50345      333158.27    
    100000   100            1.0026879      0.02612627     16.640807      1.5040172      21.103617      18.144825     -4.4628093     -209.00917      48.765947      48.422771      48.422771      0.021631983    0.023311374    0.033435453    0.036499385   -0.033068727   -0.012685643    834.55578      332987.76    
    104000   104            0.99948135    -0.029070846    16.636139      1.4992074      21.105625      18.135347     -4.4694859      783.36483      48.775652      48.385146      48.385146     -0.028484615   -0.034476598   -0.024251326   -0.021244187    0.0021773953  -0.023434885    867.83388      332914.43    
    108000   108            0.99927247     0.0633764      16.633359      1.4988941      21.106754      18.132253     -4.4733946      1120.6978      48.785357      48.352341      48.352341      0.057484193    0.10329944     0.029345567   -0.016273407    0.0068528049   0.041905761    900.97544      332793.63    
    112000   112            1.0041567      0.040289106    16.633275      1.5062203      21.105937      18.139496     -4.472662       398.7229       48.795061      48.357828      48.357828     -0.053325905    0.10924879     0.064944437   -0.030152456    0.0087211214  -0.028365438    933.53695      332472.52    
    116000   116            1.0013602     -0.018683233    16.642405      1.5020256      21.11177       18.14443      -4.4693658     -86.621449      48.804766      48.384328      48.384328     -0.03587098    -0.065645369    0.045466649    0.031161075   -0.019259666   -0.013308252    967.76556      332744.5     
    120000   120            1.0005255      0.014533675    16.633716      1.5007736      21.103757      18.13449      -4.470041       952.44524      48.814471      48.370715      48.370715      0.025533663    0.0021872941   0.015880068   -0.017284661    0.01254928    -0.001109225    1000.7505      332582.74    
    124000   124            0.9992782      0.06103105     16.633506      1.4989027      21.111447      18.132408     -4.4779415      1186.4945      48.824175      48.335829      48.335829      0.11969607     0.023904718    0.039492365   -0.04837385     0.0035757245   0.00090131819  1034.004       332515.69    
    128000   128            0.99758546     0.0018244427   16.632615      1.4963636      21.107789      18.128978     -4.4751738      1558.1575      48.83388       48.328187      48.328187      0.068799476   -0.017475168   -0.04585098    -0.012008199    0.024702679   -0.034490556    1066.5827      332240.52    
    132000   132            1.0019407     -0.017523962    16.637558      1.5028964      21.108026      18.140454     -4.4704679      402.30208      48.843585      48.363374      48.363374      0.0036070635  -0.0076609591  -0.048517992   -0.00016428847  0.010286423   -0.014863149    1099.7644      332162.19    
    136000   136            0.99860315    -0.05805208     16.638561      1.4978901      21.106558      18.136451     -4.467997       832.95571      48.853289      48.367806      48.367806     -0.11645026    -0.036288841   -0.021417135   -0.019816348   -0.010734755    0.027474034    1133.6532      332293.75    
    140000   140            1.0004002      0.016461882    16.633574      1.5005856      21.103858      18.13416      -4.4702838      1088.2351      48.862994      48.338946      48.338946     -0.0091897187   0.083532591   -0.024957228   -0.0068058328  -0.012066603    0.050812291    1166.5343      332128.97    
    144000   144            1.0015647      0.023582119    16.634515      1.5023324      21.107819      18.136847     -4.4733041      832.96903      48.872699      48.325725      48.325725      0.04755602     0.032954201   -0.0097638638  -0.0062180868   0.021598004   -0.0030766081   1200.8417      332366.31    
    148000   148            1.0033801     -0.045245018    16.639133      1.5050554      21.111651      18.144188     -4.472518       101.24475      48.882403      48.327559      48.327559     -0.075876758   -0.019541959   -0.040316336    0.022273061   -0.021236942    0.053808934    1234.6631      332458.07    
    152000   152            0.99802055    -0.037619711    16.635881      1.4970162      21.105025      18.132897     -4.4691443      1279.3473      48.892108      48.323689      48.323689     -0.052274937   -0.021933292   -0.038650905    0.012153155   -0.0091435891  -0.02224968     1268.0441      332427.78    
    156000   156            1.0003403     -0.024227734    16.632208      1.5004958      21.107135      18.132704     -4.474927       1319.4188      48.901813      48.3087        48.3087       -0.06956711    -0.063824806    0.060708714    0.0023610165  -0.0096627762   0.0012948944   1301.2855      332361.67    
    160000   160            1.0054464     -0.021802991    16.638265      1.5081549      21.106915      18.14642      -4.4686502     -65.850557      48.911517      48.327299      48.327299     -0.071214008   -0.017815247    0.023620282    0.0070234321  -0.063892686   -0.022489296    1334.677       332334.58    
    164000   164            1.003353      -0.037059008    16.629982      1.5050148      21.102143      18.134996     -4.4721611      1125.5131      48.921222      48.322153      48.322153     -0.02138394    -0.032127995   -0.057665089    0.0036085412  -0.0009539833  -0.0065616797   1367.5744      332187.16    
    168000   168            0.99833167    -0.01780966     16.630731      1.4974829      21.106094      18.128213     -4.4753634      1841.0881      48.930927      48.292104      48.292104     -0.0016007492  -0.073789766    0.021961534    0.02190873    -0.018506949    0.04283965     1400.5568      332065.35    
    172000   172            1.003842      -0.029643513    16.63522       1.5057483      21.104109      18.140969     -4.4688887      554.0584       48.940631      48.308103      48.308103      0.014089607   -0.02601424    -0.077005906    0.018518131   -0.00071280459  0.012804964    1434.0635      332069.07    
    176000   176            1.003635       0.051002061    16.638472      1.5054378      21.111352      18.143909     -4.4728803      273.52051      48.950336      48.276568      48.276568      0.0501941      0.055891096    0.046920986   -0.010316758   -0.039923712   -0.0095544661   1467.098       331964.27    
    180000   180            1.0004681     -0.0044420404   16.632619      1.5006875      21.106835      18.133307     -4.4742159      1380.3024      48.960041      48.289739      48.289739     -0.011738788   -0.012652363    0.011065031   -0.014455135    0.010358029    0.051551941    1501.2792      332116.33    
    184000   184            1.0030095      0.083633086    16.638371      1.5044995      21.108625      18.14287      -4.4702542      420.52965      48.969745      48.282778      48.282778      0.082376709    0.076521243    0.092001306    0.020186291    0.0070860346   0.024329322    1533.9257      331928.18    
    188000   188            1.005752       0.0022102918   16.634382      1.5086133      21.103848      18.142996     -4.4694657      428.34122      48.97945       48.283132      48.283132      0.002302149    0.045150955   -0.040822229    0.01122639     0.026823452   -0.035726609    1567.5599      331955.81    
    192000   192            1.0041363      0.0066107757   16.636497      1.5061897      21.108034      18.142687     -4.4715366      480.74756      48.989155      48.261723      48.261723     -0.023152478    0.01382165     0.029163155   -0.00050157258  0.023011265   -0.0088381369   1601.1358      331968.83    
    196000   196            0.99956055     0.044428326    16.631773      1.4993262      21.104022      18.131099     -4.4722492      1688.7295      48.998859      48.262279      48.262279     -0.035321647    0.073246774    0.095359851   -0.0030441292   0.024593671    0.0011976819   1634.287       331893.68    
    200000   200            1.0030974      0.01999698     16.630273      1.5046314      21.102535      18.134904     -4.4722618      1318.9827      49.008564      48.256252      48.256252      0.033014646    0.019506261    0.0074700346   0.022440038    0.015243909    0.055361611    1668.7114      332073.57    
    204000   204            0.99981679    -0.014998806    16.635242      1.4997106      21.104442      18.134953     -4.4691995      1334.6728      49.018269      48.279123      48.279123      0.05460205    -0.035721592   -0.063876876    0.029277193    0.019059058   -0.017713634    1701.7803      331980.63    
    208000   208            0.99683169    -0.0091516193   16.634739      1.495233       21.107515      18.129972     -4.472776       1865.4054      49.027973      48.26525       48.26525       0.0064999309  -0.034431525    0.00047673582  0.015491206   -0.02813243    -0.049603104    1734.8881      331897.45    
    212000   212            0.99953306     0.031524449    16.632381      1.499285       21.105173      18.131666     -4.4727925      1711.9166      49.037678      48.235527      48.235527      0.015891152    0.03461159     0.044070606   -0.00091222746  0.047813375    0.013409972    1769.0201      332008.35    
    216000   216            1.0018799      0.062301099    16.639678      1.5028052      21.112359      18.142483     -4.4726813      623.95174      49.047383      48.242685      48.242685      0.036701798    0.033172471    0.11702903     0.014947146    0.026754175   -0.01018768     1801.6746      331841.77    
    220000   220            0.99844317     0.020371895    16.633748      1.4976501      21.107121      18.131398     -4.4733732      1780.2106      49.057087      48.235031      48.235031     -0.038135127    0.012136657    0.087114154    0.038702861    0.033774282   -0.051131616    1835.4549      331883.62    
    224000   224            0.99658303    -0.031992328    16.635345      1.49486        21.107252      18.130205     -4.4719065      1922.6976      49.066792      48.239092      48.239092     -0.073823251   -0.079757605    0.057603872    0.032461736   -0.0011658656   0.0089083959   1869.3002      331934.31    
    228000   228            1.0007665     -0.016321522    16.635717      1.5011351      21.104776      18.136852     -4.4690594      1262.1716      49.076497      48.242851      48.242851     -0.00098504381 -0.031640015   -0.016339506   -0.0072388003  -0.039592248   -0.027720969    1902.4622      331862.83    
    232000   232            0.99702652     0.04838779     16.636607      1.4955252      21.105259      18.132132     -4.4686522      1765.8335      49.086201      48.232734      48.232734      0.029845173    0.087472004    0.027846192   -0.018777463   -0.025568925   -0.0040702944   1935.7456      331813.49    
    236000   236            0.99803135    -0.033102707    16.628104      1.4970324      21.105241      18.125137     -4.477137       2503.1103      49.095906      48.215267      48.215267     -0.026684814   -0.024698063   -0.047925242    0.026798777   -0.031939927   -0.010165984    1969.3197      331813.68    
    240000   240            0.99755294    -0.023266235    16.639008      1.4963148      21.104226      18.135323     -4.4652186      1479.7831      49.105611      48.249385      48.249385     -0.04472397    -0.0049930771  -0.020081657    0.0053913416  -0.0066040419  -0.017713913    2001.4958      331581.14    
    244000   244            1.0025032     -0.015776769    16.63828       1.5037401      21.106278      18.142021     -4.4679974      813.62301      49.115315      48.226058      48.226058     -0.015674742   -0.012452834   -0.019202732   -0.025739574    0.021312605   -0.0010135978   2034.1769      331437.44    
    248000   248            0.99900421     0.073466316    16.631328      1.4984917      21.109187      18.12982      -4.4778592      2084.3534      49.12502       48.197695      48.197695      0.084991088    0.067580164    0.067827696   -0.0025604857  -0.0012793972  -0.022943005    2066.6369      331261.89    
    252000   252            0.99734436    -0.022212067    16.637294      1.4960019      21.105276      18.133296     -4.4679823      1748.5378      49.134725      48.210591      48.210591      0.013834923   -0.026502077   -0.053969046    0.020149851   -0.078586576   -0.017901074    2100.1213      331252.47    
    256000   256            1.0012435     -0.00095189889  16.640478      1.5018506      21.109599      18.142329     -4.4691208      843.15034      49.144429      48.210238      48.210238     -0.019163617    0.051891786   -0.035583866   -0.015464619   -0.015270846   -0.031323591    2132.7152      331104.04    
    260000   260            0.9989877      0.034660572    16.636706      1.4984669      21.107864      18.135173     -4.4711582      1597.2499      49.154134      48.183947      48.183947      0.036523514    0.0015618747   0.065896327   -0.025827696   -0.020674436    0.0026730118   2165.1475      330934.47    
    264000   264            0.99819506    -0.0064601296   16.628134      1.497278       21.106576      18.125412     -4.478442       2617.7454      49.163839      48.150951      48.150951      0.02477861    -0.010050377   -0.034108622   -0.0094499123  -0.0093868927   0.010264874    2197.6079      330773.29    
    268000   268            0.99861058     0.067028505    16.632747      1.4979013      21.106459      18.130649     -4.4737121      2101.5374      49.173543      48.18277       48.18277       0.056775561    0.098462715    0.045847239   -0.01579627     0.012273934   -0.015462483    2230.083       330618.12    
    272000   272            0.99874492     0.0028021342   16.641404      1.4981028      21.108848      18.139507     -4.4674433      1214.1023      49.183248      48.202106      48.202106      0.050877801   -0.02842845    -0.014042949   -0.029613119   -0.01876401    -0.016219346    2262.1274      330403.66    
    276000   276            1.0050538     -0.039957226    16.642987      1.507566       21.111252      18.150553     -4.4682646      102.50413      49.192953      48.199822      48.199822     -0.054228093   -0.061541384   -0.0041022023   0.0066388362  -0.030721992   -0.0047524015   2295.3902      330369.86    
    280000   280            1.0004876      0.013163829    16.630994      1.5007168      21.107531      18.131711     -4.4765371      2053.7182      49.202657      48.135294      48.135294      0.027766401   -0.011684105    0.023409189    0.037083064   -0.0083751682  -0.00092753718  2328.2221      330274.93    
    284000   284            1.0019689      0.028627001    16.630735      1.5029387      21.108202      18.133674     -4.4774664      1872.8537      49.212362      48.128115      48.128115     -0.013391783    0.055726658    0.043546127    0.03236433    -0.049477287    0.019499098    2361.6568      330266.07    
    288000   288            1.0039481     -0.0017240938   16.63396       1.5059075      21.108819      18.139868     -4.4748588      1258.1117      49.222067      48.142062      48.142062      0.022005356    0.045759477   -0.072937114   -0.0023927719  -0.0017004779   0.052438821    2395.1229      330260.83    
    292000   292            0.9960571     -0.00045838761  16.632699      1.4940711      21.103282      18.126771     -4.4705825      2620.8273      49.231771      48.152501      48.152501      0.00054403507  0.04202002    -0.043939218   -0.046643297    0.00062185976  0.04568913     2428.0327      330179.19    
    296000   296            0.99851502     0.0010294962   16.635787      1.4977579      21.106247      18.133545     -4.4704595      1946.4152      49.241476      48.153613      48.153613     -0.030882036    0.014554276    0.019416249   -0.0069443673  -0.0080167735   0.073862724    2461.2838      330144.64    
    300000   300            1.0011246      0.044290513    16.641049      1.5016723      21.107387      18.142722     -4.4663375      1026.3797      49.251181      48.160889      48.160889      0.0076787071   0.043643688    0.081549143    0.019321588   -0.022647328    0.001177723    2494.5011      330105.64    
    304000   304            1.0020541      0.0056795515   16.633561      1.5030664      21.108894      18.136628     -4.4753324      1671.1975      49.260885      48.136641      48.136641      0.035930941   -0.014188536   -0.0047037502   0.038122519    0.063604473   -0.048946484    2527.2673      330007.9     
    308000   308            1.0037688      0.033324333    16.6295        1.5056385      21.107038      18.135139     -4.4775382      1843.8535      49.27059       48.111528      48.111528     -0.010624183    0.067617378    0.042979805    0.013007896   -0.020887033    0.026725583    2561.0529      330043.22    
    312000   312            1.0031605     -0.049731008    16.631149      1.5047261      21.106469      18.135875     -4.4753199      1788.7627      49.280295      48.134566      48.134566     -0.05139476    -0.074686025   -0.023112239    0.019151185    0.0071057559  -0.035839232    2594.4821      330031.43    
    316000   316            0.99493919     0.02218514     16.633044      1.4923942      21.104045      18.125438     -4.4710006      2879.2082      49.289999      48.129652      48.129652     -0.0089075173   0.051029401    0.024433537   -0.016868987    0.0060067904  -0.019766137    2627.199       329929.63    
    320000   320            1.0038585      0.020909051    16.630756      1.505773       21.105083      18.136529     -4.4743265      1762.4545      49.299704      48.12212       48.12212      -0.0079114408  -0.010700422    0.081339016    0.0062660048   0.01562292     0.045447602    2659.2835      329751.16    
    324000   324            1.0002086      0.003195116    16.638403      1.5002983      21.108547      18.138701     -4.4701439      1560.2971      49.309409      48.122663      48.122663      0.053304239   -0.041843708   -0.0018751824   0.035485868    0.0042579931  -0.014559757    2692.3357      329694.79    
    328000   328            0.99783371     0.0065949459   16.631092      1.496736       21.106994      18.127828     -4.4759019      2694.926       49.319113      48.095433      48.095433      0.027907534   -0.0096956573   0.001572961   -0.027186269   -0.0091684307   0.05957168     2725.6767      329673.92    
    332000   332            0.99726832     0.022927733    16.636655      1.4958879      21.109422      18.132543     -4.4727673      2231.9122      49.328818      48.103191      48.103191      0.020204719    0.037516227    0.011062252    0.0010882776   0.048597141   -0.01881957     2758.1944      329554.39    
    336000   336            1.0029353      0.044917322    16.635405      1.5043883      21.106069      18.139793     -4.4706638      1508.6668      49.338523      48.096671      48.096671      0.048497756    0.02127543     0.064978778   -0.035371844    0.017186227    0.057538738    2791.1891      329493.23    
    340000   340            0.99763746    -0.023391594    16.634728      1.4964416      21.108189      18.13117      -4.4734605      2412.7177      49.348227      48.096918      48.096918      0.026673126   -0.052052103   -0.044795806    0.023682971    0.026893069    0.022871771    2824.141       329427.74    
    344000   344            1.0010795      0.051646795    16.630419      1.5016047      21.1063        18.132024     -4.4758802      2345.3179      49.357932      48.069965      48.069965      0.10535283     0.03706725     0.012520309    0.028334636    0.029173794   -0.0039355141   2858.7847      329558.04    
    348000   348            0.99912362     0.027905908    16.64032       1.4986708      21.11347       18.138991     -4.4731506      1651.445       49.367637      48.089849      48.089849      0.057464258    0.0083573286   0.017896137   -0.0052122566   4.3732111e-05  0.029762553    2891.5535      329470.92    
    352000   352            0.99658637    -0.049060491    16.639716      1.494865       21.10576       18.134581     -4.4660438      2123.5847      49.377341      48.123585      48.123585     -0.070997418   -0.0031308903  -0.073053166    0.03374476     0.015147309   -0.016942734    2925.2585      329490.48    
    356000   356            1.0027026     -0.059988925    16.627408      1.5040393      21.10671       18.131448     -4.4793018      2464.7773      49.387046      48.083294      48.083294     -0.020108063   -0.061534372   -0.098324341   -0.0031725128  -0.0053992137   0.027970153    2958.8679      329498.2     
    360000   360            0.9976393     -0.010018716    16.627668      1.4964443      21.105262      18.124112     -4.4775941      3236.8575      49.396751      48.074963      48.074963     -0.053218908    0.0076660184   0.015496742   -0.02774017     0.0088756822   0.046785132    2992.6961      329529.09    
    364000   364            0.99801723     0.011551626    16.637706      1.4970112      21.1038        18.134717     -4.4660949      2170.4532      49.406455      48.080259      48.080259     -0.014323571    0.032213804    0.016764643    0.013402631    0.028148255    0.030057798    3025.6279      329460.95    
    368000   368            0.99951808     0.057287298    16.642456      1.4992625      21.109684      18.141719     -4.4672275      1473.1765      49.41616       48.074676      48.074676      0.060564499    0.034307784    0.07698961     0.026242696    0.018493324    0.011290845    3058.8522      329425.09    
    372000   372            1.0001946     -0.037323672    16.634782      1.5002773      21.106143      18.13506      -4.471361       2175.9179      49.425865      48.074525      48.074525     -0.012244194   -0.044770129   -0.054956694    0.021741846   -0.013853755    0.0094299051   3092.4685      329431.03    
    376000   376            1.0011392     -0.055286156    16.625382      1.5016942      21.10615       18.127077     -4.4807678      3014.1077      49.435569      48.045377      48.045377     -0.039502183   -0.087250647   -0.039105639   -0.0069874352   0.035606927   -0.0019247545   3126.7414      329505.32    
    380000   380            1.0043694     -0.024502397    16.629356      1.5065394      21.106243      18.135896     -4.4768868      2130.2434      49.445274      48.040988      48.040988     -0.024995662   -0.032169294   -0.016342234   -0.0028628573  -0.0050007209   0.0099831411   3159.2615      329394.58    
    384000   384            1.0026485      0.0088807514   16.634005      1.5039581      21.106191      18.137963     -4.4721856      1938.4707      49.454979      48.049897      48.049897      0.010624717    0.012648522    0.0033690152  -0.024784985   -0.027231937   -0.00053743163  3193.1566      329427.32    
    388000   388            1.0004265     -0.045413529    16.631304      1.5006251      21.106792      18.131929     -4.475488       2577.1713      49.464683      48.02402       48.02402      -0.045730901   -0.021335264   -0.069174422    0.029820238    0.012289173    0.034217299    3227.1023      329463.86    
    392000   392            0.99803981    -0.030959471    16.623774      1.4970451      21.105267      18.12082      -4.4814921      3736.2349      49.474388      47.9971        47.9971        0.048553706   -0.076724343   -0.064707775   -0.02672814     3.2359748e-05  0.0097693375   3261.1103      329505.25    
    396000   396            1.0004265     -0.0067959881   16.634958      1.5006251      21.103622      18.135583     -4.4686641      2243.7862      49.484093      48.042027      48.042027     -0.015771154   -0.0092178489   0.0046010384  -0.034911934   -0.0061257937  -0.010536634    3294.8482      329518.1     
    400000   400            0.9999788     -0.0065634661   16.636059      1.4999536      21.111378      18.136012     -4.4753194      2219.6138      49.493797      48.026863      48.026863     -0.036651079    0.034266928   -0.017306248    0.0047028097  -0.01268201    -0.019411382    3327.3103      329403.72    
    404000   404            0.99968847    -0.044223273    16.626356      1.4995181      21.10487       18.125874     -4.4785146      3278.569       49.503502      48.019848      48.019848     -0.086050308   -0.043361025   -0.0032584871  -0.020742424    0.015774516    0.028971519    3361.4852      329458.83    
    408000   408            0.99712089    -0.050456495    16.642759      1.4956667      21.108164      18.138426     -4.4654042      2012.2079      49.513207      48.059279      48.059279      0.0041146033  -0.089973087   -0.065511002   -0.0056075676   0.005335082    0.01923825     3394.6719      329416.3     
    412000   412            0.99965503    -0.038531107    16.644473      1.4994679      21.112098      18.143941     -4.4676249      1467.7802      49.522911      48.027815      48.027815     -0.030937449   -0.065784901   -0.01887097     0.019956405   -0.0028782481  -0.0049890226   3427.3511      329325.18    
    416000   416            1.0002368     -0.015780076    16.632595      1.5003405      21.106749      18.132936     -4.4741536      2615.4387      49.532616      48.002113      48.002113     -0.019126644   -0.020158097   -0.0080554855   0.0077275822   0.0010335359   0.015765583    3460.9811      329325.66    
    420000   420            1.0004781      0.010246023    16.633078      1.5007025      21.106777      18.13378      -4.4736995      2549.2854      49.542321      48.0037        48.0037       -0.028226735    0.046779643    0.012185162    0.0055585913   0.0016020673   0.012184241    3494.4979      329314.82    
    424000   424            1.0047211      0.0024500723   16.642023      1.507067       21.108307      18.14909      -4.4662838      1000.6778      49.552025      48.02207       48.02207      -0.013129994    0.013062661    0.0074175493  -0.021314284    0.0067926316  -0.020550284    3528.5146      329350.22    
    428000   428            1.0007245      0.028703547    16.641473      1.5010721      21.108796      18.142545     -4.4673234      1691.8982      49.56173       48.013177      48.013177      0.059774025   -0.0034140253   0.029750642   -0.025938154   -0.02126976     0.027246565    3561.7074      329308.14    
    432000   432            1.0001834     -0.026773561    16.636422      1.5002605      21.103591      18.136683     -4.4671689      2312.9666      49.571435      48.012915      48.012915     -0.039242969   -0.015779845   -0.02529787     0.035221354   -0.03290068    -0.040875951    3595.0233      329277.5     
    436000   436            0.9999911      0.017252686    16.62689       1.499972       21.103428      18.126862     -4.4765389      3340.0549      49.581139      47.967938      47.967938      0.028061192   -0.00096263585  0.024659502   -0.0044684413  -0.014056442   -0.012247869    3628.1394      329228.68    
    440000   440            0.99992941     0.03142538     16.626701      1.4998795      21.101761      18.12658      -4.47506        3388.9308      49.590844      47.947556      47.947556      0.028014486    0.01334999     0.052911665   -0.045171941    0.033440391   -0.010717572    3662.1948      329264.61    
    444000   444            1.0030876      0.03718326     16.637031      1.5046168      21.107742      18.141648     -4.470711       1865.1454      49.600549      47.968683      47.968683     -0.023965362    0.085035956    0.050479184   -0.036246135   -0.01230443     0.041941951    3695.025       329190.11    
    448000   448            0.99909716    -0.026556478    16.63683       1.4986311      21.106341      18.135461     -4.469511       2519.683       49.610253      47.995354      47.995354     -0.071157763   -0.00095430094 -0.0075573711   0.013362835    0.0061764277   0.018343148    3728.8722      329206.15    
    452000   452            0.99648912    -0.020268178    16.627517      1.4947191      21.101166      18.122236     -4.4736489      3895.1519      49.619958      47.961032      47.961032     -0.059419174   -0.024354075    0.022968715   -0.0068204471  -0.01807788    -0.033742539    3762.1541      329171.84    
    456000   456            1.0031904     -0.022573563    16.626783      1.5047708      21.105401      18.131554     -4.4786184      2960.3166      49.629663      47.949642      47.949642     -0.06037801     0.017076169   -0.024418849    0.011727206   -0.014447158   -0.020191235    3796.4797      329228.06    
    460000   460            0.99862572     0.0075044481   16.636443      1.497924       21.104888      18.134367     -4.4684449      2692.3094      49.639367      47.978034      47.978034     -0.059851318    0.070129973    0.01223469    -0.017954228    0.014948498   -0.052177521    3829.3034      329153.6     
    464000   464            0.99822748    -0.085820127    16.648147      1.4973266      21.111077      18.145473     -4.46293        1574.9679      49.649072      48.007695      48.007695     -0.11008919    -0.019131043   -0.12824015    -0.05617494    -0.05043226     0.018643632    3862.7364      329131.78    
    468000   468            0.9964983     -0.021841882    16.636326      1.4947329      21.105542      18.131059     -4.4692154      3072.655       49.658777      47.949313      47.949313     -0.021516381    0.0029241783  -0.046933444   -0.03419042    -0.027144974   -0.016682881    3896.9931      329179.34    
    472000   472            0.99589156    -0.047823199    16.644677      1.4938228      21.108246      18.138499     -4.4635699      2330.4459      49.668481      47.974019      47.974019     -0.047874597   -0.03196395    -0.063631052    0.018823837    0.068684958    0.014101461    3931.4326      329240.82    
    476000   476            0.9972208     -0.045732916    16.643331      1.4958166      21.101091      18.139148     -4.4577595      2283.989       49.678186      48.002424      48.002424     -0.035293736   -0.038704926   -0.063200085    0.0095182636  -0.0044796996   0.048289994    3964.6631      329200.3     
    480000   480            0.99760158    -0.050788355    16.636954      1.4963878      21.107154      18.133341     -4.4702004      2899.6091      49.687891      47.947338      47.947338     -0.1133194     -0.032347673   -0.0066979928   0.039534221    0.010824626   -0.050277308    3998.0948      329176.47    
    484000   484            0.99248624    -0.020339395    16.627522      1.4887148      21.103005      18.116236     -4.4754831      4673.0733      49.697595      47.931933      47.931933     -0.079471551    0.012067294    0.0063860708  -0.0093242308  -0.0072921595   0.030694255    4032.3995      329223.76    
    488000   488            0.99675045    -0.015753735    16.632892      1.4951111      21.104497      18.128003     -4.4716051      3487.7695      49.7073        47.929526      47.929526     -0.0099062201   0.026053447   -0.063408433    0.0065834836  -0.0065649337   0.0016712587   4065.9574      329209.24    
    492000   492            0.99827554    -0.030700276    16.642176      1.4973987      21.106893      18.139575     -4.4647165      2322.2039      49.717005      47.964123      47.964123      0.016405932   -0.07962678    -0.02887998    -0.055540721   -0.014522531    0.022741428    4100.2396      329252.57    
    496000   496            0.99879785    -0.0035805704   16.642142      1.4981822      21.108211      18.140324     -4.4660696      2265.3406      49.726709      47.949262      47.949262      0.017895207   -0.031334689    0.002697771    0.0018113619   0.01823245    -0.030587911    4132.1054      329102.2     
    500000   500            0.99573875    -0.052603175    16.631923      1.4935936      21.103294      18.125517     -4.471371       3803.0528      49.736414      47.929276      47.929276     -0.04327628    -0.032679333   -0.081853912   -0.0021628381   0.029772344    0.023576723    4164.185       328970.62    
    504000   504            0.9980859     -7.8898631e-07  16.636978      1.4971142      21.106619      18.134092     -4.4696403      2944.0249      49.746119      47.899992      47.899992      0.024966023   -0.010939612   -0.014028778   -0.032571017   -0.016707337    0.048963401    4198.0969      328984.2     
    508000   508            1.00405        0.026668457    16.637203      1.5060603      21.10513       18.143263     -4.4679263      2023.9881      49.755823      47.916819      47.916819      0.037462027   -0.022003579    0.064546923   -0.012327746    0.0068331496   0.017447004    4230.4955      328879.39    
    512000   512            1.0036225     -0.027536436    16.643092      1.505419       21.106932      18.148511     -4.4638397      1506.0817      49.765528      47.932238      47.932238     -0.017233506   -0.019521473   -0.04585433    -0.044167583   -0.0060110235   0.065980915    4264.1395      328871.76    
    516000   516            0.99655414    -0.0675095      16.640437      1.4948166      21.106127      18.135254     -4.4656902      2884.9813      49.775233      47.937273      47.937273     -0.099184533   -0.029053741   -0.074290227   -0.0065229579  -0.0021774495   0.043088333    4297.9097      328873.39    
    520000   520            0.9970798     -0.028975223    16.63539       1.4956051      21.102979      18.130996     -4.4675886      3341.5634      49.784937      47.920895      47.920895     -0.047448742   -0.028993947   -0.01048298     0.024724571   -0.019358198   -0.053949264    4331.4397      328856.23    
    524000   524            0.99693147    -0.016777287    16.6297        1.4953826      21.105658      18.125083     -4.4759579      3967.7216      49.794642      47.874302      47.874302     -0.092378515    0.069568064   -0.02752141     0.0085515288   0.022158959   -0.019007796    4363.7414      328746.29    
    528000   528            1.0057291     -0.00177878     16.628933      1.5085789      21.103676      18.137512     -4.4747433      2713.9446      49.804347      47.880721      47.880721      0.0093536707   0.042726316   -0.057416326    0.0446517      0.015100944    0.020181648    4396.2262      328651.21    
    532000   532            1.0002497      0.014884104    16.639171      1.5003599      21.10505       18.139531     -4.4658789      2527.511       49.814051      47.885885      47.885885      0.033038484    0.055251239   -0.043637412    0.014327564    0.0085676788  -0.04602431     4429.1392      328588.85    
    536000   536            1.0042647      0.023374868    16.628386      1.5063823      21.111074      18.134768     -4.4826877      3035.8154      49.823756      47.815068      47.815068      0.05470586     0.042061678   -0.026642933   -0.03073642     0.01583747     0.0095481996   4463.2792      328617.26    
    540000   540            1.0011052      0.048051432    16.628441      1.5016431      21.104269      18.130084     -4.4758281      3535.9767      49.833461      47.842158      47.842158      0.066473045    0.05987393     0.01780732    -0.046256301   -0.017375924    0.013194379    4496.8342      328602       
    544000   544            1.0006851      0.035909238    16.640646      1.501013       21.104018      18.141659     -4.463372       2369.3362      49.843165      47.871468      47.871468      0.0068341315   0.032992605    0.067900976    0.039598888   -0.0074494046  -0.059323677    4530.31        328580.72    
    548000   548            1.0035463      0.064200988    16.634957      1.5053048      21.105484      18.140261     -4.4705278      2532.8114      49.85287       47.845918      47.845918      0.067841126    0.076554253    0.048207584   -0.0020983873   0.033427421   -0.025491792    4563.9005      328567.53    
    552000   552            1.0035411      0.01586442     16.627753      1.505297       21.106788      18.13305      -4.4790344      3291.7195      49.862575      47.826807      47.826807     -0.034077493    0.006308468    0.075362285    0.017714791    0.053627013    0.014482196    4596.4577      328480.19    
    556000   556            0.99875941     0.013658867    16.639366      1.4981245      21.108954      18.13749      -4.4695883      2857.3249      49.872279      47.845332      47.845332      0.060560597   -0.0055782975  -0.014005697    0.02382938     0.015217131   -0.024058292    4629.7968      328449.11    
    560000   560            1.0031044      0.016888764    16.633736      1.504642       21.106728      18.138378     -4.4729918      2786.3061      49.881984      47.851297      47.851297      0.00022077629  0.06782043    -0.017374913    0.018702289    0.036753543   -0.0092066026   4663.6931      328457.24    
    564000   564            0.99528779     0.012704619    16.636128      1.4929171      21.106972      18.129045     -4.4708444      3762.6081      49.891689      47.846436      47.846436      0.020723146    0.011761758    0.0056289528  -0.034831983   -0.019077546    0.02195543     4697.9065      328486.95    
    568000   568            0.997147      -0.10031789     16.63684       1.4957059      21.107373      18.132546     -4.4705324      3423.9596      49.901393      47.85151       47.85151      -0.09282594    -0.073271327   -0.13485639    -0.013112704    0.0063835516  -0.051921482    4731.3588      328462.93    
    572000   572            1.0007141     -0.048698329    16.641643      1.5010564      21.109057      18.142699     -4.4674144      2403.5538      49.911098      47.862856      47.862856     -0.058426446   -0.059855748   -0.027812794    0.035526084   -0.0042635118  -0.012232239    4764.4997      328417.3     
    576000   576            0.9982211     -0.016648695    16.634272      1.497317       21.105412      18.131589     -4.4711401      3562.259       49.920803      47.839408      47.839408     -0.005380594   -0.017500806   -0.027064686   -0.016214312   -0.024543145   -0.033096415    4798.3171      328418.15    
    580000   580            0.99557286    -0.026546537    16.637443      1.4933447      21.107476      18.130788     -4.4700325      3664.6386      49.930507      47.845245      47.845245     -0.071417753    0.013531725   -0.021753583   -0.024096063   -0.042215287    0.034974789    4832.1654      328420.62    
    584000   584            0.99942376    -0.051025799    16.641149      1.499121       21.106021      18.14027      -4.4648718      2713.3593      49.940212      47.850288      47.850288     -0.056638797   -0.033357605   -0.063080994   -0.025087867   -0.024420002   -0.0014355046   4864.6354      328329.57    
    588000   588            0.99870145    -0.0083067942   16.638476      1.4980376      21.106522      18.136514     -4.4680461      3118.2112      49.949917      47.829659      47.829659      0.024541163   -0.02403222    -0.025429326    0.0063317715  -0.00046705863  0.036767644    4897.5517      328269.23    
    592000   592            0.99381031    -0.018696481    16.630553      1.4907009      21.104761      18.121254     -4.4742078      4702.5442      49.959621      47.810331      47.810331      0.019167851    0.0067806709  -0.082037965   -0.019373645   -0.0026758818  -0.0042495634   4930.8991      328237.96    
    596000   596            0.99508424    -0.012636564    16.637377      1.4926118      21.107418      18.129989     -4.4700416      3827.3776      49.969326      47.800864      47.800864     -0.069601247    0.011566247    0.020125309   -0.037836608   -0.0037993973   0.026106087    4963.0054      328124.6     
    600000   600            0.99870646    -0.058179498    16.639017      1.4980451      21.1045        18.137062     -4.465483       3122.3509      49.979031      47.831313      47.831313     -0.097468331   -0.074925357   -0.0021448057  -0.012242108   -0.00085057311  0.041010987    4996.2068      328084.25    
    604000   604            0.99163889    -0.062290979    16.642371      1.4874438      21.105542      18.129815     -4.4631706      3885.3061      49.988735      47.848393      47.848393     -0.091731758   -0.024105312   -0.071035867    0.010244937   -0.0049330969  -0.019222152    5028.9793      328016.01    
    608000   608            0.99921017     0.0067617732   16.63725       1.4988006      21.104275      18.13605      -4.4670253      3266.1632      49.99844       47.810884      47.810884      0.0017223841   0.017922123    0.00064081259 -0.0031024494  -0.017236655    0.028618201    5061.2129      327913.32    
    612000   612            0.99896782    -0.0091832609   16.644206      1.4984371      21.108156      18.142643     -4.4639501      2610.4946      50.008145      47.809708      47.809708     -0.068406975    0.021217392    0.0196398      0.016914297   -0.01463081     0.018337747    5093.248       327798.78    
    616000   616            0.99820445    -0.06038289     16.633692      1.4972921      21.105214      18.130984     -4.4715223      3825.718       50.017849      47.797326      47.797326     -0.07966372    -0.027973626   -0.073511323    0.0069733629  -0.065036314    0.050630419    5125.5785      327704.2     
    620000   620            1.0006672      0.051268265    16.633965      1.5009862      21.108548      18.134951     -4.4745829      3439.0615      50.027554      47.758108      47.758108      0.036706347    0.054715276    0.062383173    0.0096998357  -0.069498357   -0.011334733    5158.3135      327636.11    
    624000   624            1.00551        0.017324764    16.644117      1.5082503      21.109557      18.152367     -4.4654398      1674.0343      50.037259      47.783264      47.783264      0.032128735    0.018930417    0.00091514146  0.022023971   -0.0065063756  -0.0092284141   5190.1967      327514.72    
    628000   628            1.0018924     -0.0087325449   16.635934      1.5028239      21.108871      18.138758     -4.4729367      3088.7926      50.046963      47.776826      47.776826      0.018023088   -0.029169138   -0.015051585    0.065141434   -0.045120692    0.00044278679  5222.9118      327446.63    
    632000   632            1.0008296     -0.044514212    16.629639      1.5012298      21.101796      18.130869     -4.4721568      3917.3862      50.056668      47.776866      47.776866     -0.097502424   -0.026362611   -0.0096776012   0.042450144   -0.026423707    0.042314047    5254.9756      327338.42    
    636000   636            1.0019761     -0.035196008    16.642066      1.5029495      21.108318      18.145015     -4.466252       2488.1625      50.066373      47.77081       47.77081      -0.016932135   -0.036989685   -0.051666203   -0.019180098    0.0038538895   0.050951394    5287.6872      327271.26    
    640000   640            0.99731784     0.0035906188   16.644723      1.4959622      21.107277      18.140685     -4.4625537      2952.3104      50.076077      47.785669      47.785669     -0.009689866    0.046918651   -0.026456929   -0.014898119   -0.037796463   -0.019911965    5320.0763      327184.69    
    644000   644            0.99943646    -0.0035414169   16.63757       1.4991401      21.107916      18.136711     -4.4703456      3379.7111      50.085782      47.758943      47.758943     -0.032489322    0.036999026   -0.015133954   -0.00017056497  0.015243992    0.030088591    5354.164       327202.6     
    648000   648            0.99946169     0.032975641    16.624569      1.4991779      21.106382      18.123747     -4.4818129      4728.2624      50.095487      47.701704      47.701704     -0.0017943519   0.073579704    0.027141571    0.016546617   -0.0064715093  -0.018794667    5386.2934      327100.96    
    652000   652            0.99956859     0.029240728    16.635218      1.4993383      21.109394      18.134556     -4.4741767      3641.0285      50.105191      47.725577      47.725577      0.01898538     0.023044189    0.045692616   -0.00044266203 -0.0033450815   0.018310824    5418.7856      327022.05    
    656000   656            1.0007766     -0.014632518    16.633995      1.5011502      21.10724       18.135146     -4.4732451      3600.6241      50.114896      47.729412      47.729412     -0.048784833   -0.030018104    0.034905384    0.075637726    0.0083843137   0.0093640762   5451.0875      326932.3     
    660000   660            0.99949365     0.031533796    16.629696      1.4992258      21.103007      18.128922     -4.4733106      4258.7593      50.124601      47.70889       47.70889       0.027083715    0.064466411    0.0030512615   0.039527539   -0.0097128122   0.049884087    5484.0488      326882.55    
    664000   664            1.0023341      0.049386269    16.622349      1.5034865      21.105793      18.125836     -4.4834437      4595.1214      50.134305      47.68703       47.68703       0.017771537    0.092044259    0.038343011    0.0087787114  -0.036425458    0.0038197451   5516.005       326773.45    
    668000   668            1.0019008     -0.025829528    16.637098      1.5028365      21.109182      18.139934     -4.4720844      3170.3906      50.14401       47.71444       47.71444      -0.052683061   -0.017966218   -0.006839306    0.0093316531   0.011033925   -0.012470037    5548.8702      326718.81    
    672000   672            0.9979863     -0.0049009732   16.637536      1.4969649      21.108651      18.134501     -4.4711144      3747.6445      50.153715      47.706882      47.706882      0.016335439   -0.014806347   -0.016232012    0.024702242    0.030382244   -0.063152277    5581.0628      326625.05    
    676000   676            1.001287       0.01239044     16.62122       1.5019159      21.106199      18.123136     -4.4849785      4932.0981      50.163419      47.680974      47.680974     -0.017897827    0.049869587    0.0051995601  -0.019824163   -0.024814851   -0.0046630057   5614.4197      326599.77    
    680000   680            0.99672882    -0.056855198    16.637951      1.4950786      21.107243      18.13303      -4.469292       3938.276       50.173124      47.710471      47.710471     -0.076104758   -0.098053354    0.0035925185   0.0028374584   0.00028953132  0.014010785    5648.2192      326599.97    
    684000   684            0.99960477    -0.0093416958   16.639974      1.4993925      21.111141      18.139367     -4.4711664      3308.4455      50.182829      47.698389      47.698389      0.048812233    0.0035976815  -0.080435001   -0.005980401    0.013043236    0.022497428    5679.9767      326482.4     
    688000   688            0.99990819    -0.029239577    16.629657      1.4998476      21.105245      18.129504     -4.4755878      4338.6344      50.192533      47.69889       47.69889      -0.0029443365  -0.048019655   -0.036754739    1.5128952e-05 -0.050421215   -0.0090041806   5712.8687      326430.66    
    692000   692            0.99758046    -0.04389134     16.636862      1.4963561      21.105744      18.133218     -4.4688825      3978.1363      50.202238      47.715419      47.715419     -0.073937127   -0.041775104   -0.01596179    -0.0074239442   0.026953206   -0.025285358    5745.3396      326355.22    
    696000   696            0.99966635     0.019079928    16.646276      1.4994849      21.106687      18.145761     -4.4604109      2712.5388      50.211943      47.717052      47.717052     -0.017990751    0.042291339    0.032939197    0.0081558903  -0.0077642453  -0.05411789     5777.6262      326269.85    
    700000   700            0.99966704     0.0066353088   16.633127      1.4994859      21.107626      18.132613     -4.4744989      4080.0563      50.221647      47.666467      47.666467     -0.033272878    0.025827841    0.027350964   -0.0085460359  -0.049815395   -0.016407549    5809.9127      326185.1     
    704000   704            1.0006008     -0.030144043    16.626609      1.5008866      21.108319      18.127496     -4.4817094      4624.071       50.231352      47.654711      47.654711     -0.0037441448  -0.025743943   -0.060944041   -0.0069073948   0.0043945713   0.023289851    5842.8444      326136.95    
    708000   708            1.0038236     -0.035412758    16.634204      1.5057207      21.108971      18.139925     -4.4747669      3370.217       50.241057      47.670202      47.670202     -0.046150942   -0.065467294    0.005379961    0.044984661    0.036501272   -0.025950043    5875.8558      326093.4     
    712000   712            1.0037292     -0.008633204    16.636508      1.5055791      21.105341      18.142087     -4.4688328      3168.816       50.250761      47.673231      47.673231      0.0066995813  -0.020755387   -0.011843807    0.013709869    0.0062558578  -0.052583842    5908.9749      326055.91    
    716000   716            1.0020096      0.0089558638   16.627883      1.5029998      21.105518      18.130883     -4.4776355      4336.8938      50.260466      47.641321      47.641321      0.015294686    0.00086484705  0.010708059   -0.041764628   -0.010099928    0.032233893    5940.77        325945.82    
    720000   720            0.99828994     0.013944371    16.634214      1.4974203      21.105136      18.131634     -4.470922       4279.8157      50.270171      47.624499      47.624499     -0.037512637    0.014882323    0.064463427    0.036318777    0.017829967    0.01143421     5973.731       325900.21    
    724000   724            1.0050367      0.0067573376   16.637871      1.5075404      21.109505      18.145412     -4.4716332      2887.9304      50.279875      47.656496      47.656496      0.027767966    0.0066682751  -0.014164228   -0.0059615167  -0.021281829    0.018302133    6006.4516      325841.7     
    728000   728            1.0000157      0.01946467     16.633477      1.5000088      21.109282      18.133485     -4.475805       4129.9256      50.28958       47.635708      47.635708     -0.0014945419   0.058401072    0.0014874808   0.0073047662  -0.022320614    7.4125226e-05  6039.4607      325799.04    
    732000   732            1.0017886      0.034876237    16.632684      1.5026682      21.102808      18.135353     -4.4701241      3958.4057      50.299285      47.635112      47.635112      0.069291867    0.027299969    0.0080368739  -0.0053544189  -0.018306045    0.021238883    6072.2974      325747.23    
    736000   736            1.0002589     -0.045856762    16.639085      1.5003737      21.110341      18.139458     -4.4712565      3557.7217      50.308989      47.649256      47.649256     -0.029411994   -0.083997976   -0.024160316   -0.0058492757   0.023578892   -0.025973671    6105.3871      325709.13    
    740000   740            1.0007506      0.0093462789   16.640973      1.5011113      21.106173      18.142084     -4.4652008      3308.6407      50.318694      47.662615      47.662615      0.014257677    0.0073029446   0.0064782155   0.011894005   -0.0035132742   0.049342988    6139.0523      325701.61    
    744000   744            0.99728135     0.023994679    16.633808      1.4959074      21.106016      18.129716     -4.4722077      4596.1679      50.328399      47.609794      47.609794     -0.013112897    0.02503275     0.060064182    0.056033565    0.0069757903   0.0019884642   6172.7122      325693.53    
    748000   748            0.99953825    -0.018925901    16.634272      1.4992927      21.107589      18.133565     -4.4733162      4221.271       50.338103      47.622187      47.622187      0.0036057889  -0.061923309    0.001539818    0.02350717     0.027467523   -0.011785506    6205.9567      325663.38    
    752000   752            0.99923979     0.004848472    16.649352      1.4988451      21.106523      18.148197     -4.4571714      2741.9372      50.347808      47.650352      47.650352      0.021204496   -0.0014036666  -0.0052554137  -0.024957492   -0.0089589711  -0.023330242    6240.0598      325678.02    
    756000   756            0.99796806     0.027226684    16.640491      1.4969375      21.108657      18.137429     -4.4681661      3865.8238      50.357513      47.618143      47.618143     -0.01739363     0.0013082776   0.097765404    0.017572486   -0.0036749276   0.027340286    6273.3919      325652.1     
    760000   760            1.0005942     -0.0594833      16.632682      1.5008767      21.103145      18.133559     -4.4704622      4282.2938      50.367217      47.621238      47.621238     -0.079450408   -0.036533609   -0.062465882    0.0050432498   0.0021561284   0.023272464    6307.0734      325644.16    
    764000   764            1.0009989     -0.036919562    16.645432      1.5014838      21.109221      18.146916     -4.4637881      2933.4652      50.376922      47.635448      47.635448     -0.013586176   -0.070973494   -0.026199016    0.014745984    0.01419879     0.0060000256   6339.9718      325595.73    
    768000   768            0.99900359    -0.039822136    16.641833      1.4984908      21.106933      18.140323     -4.4651005      3629.6912      50.386627      47.64196       47.64196      -0.067335589   -0.053137437    0.0010066168   0.029386678   -0.032509882   -0.011541849    6373.0129      325554.74    
    772000   772            0.9977763     -0.016515492    16.639622      1.4966498      21.108857      18.136272     -4.4692352      4065.1096      50.396331      47.625708      47.625708     -0.025522366   -0.053765364    0.029741254   -0.023791199   -0.021421818   -0.011997111    6406.3632      325529.55    
    776000   776            1.0015032     -0.015039177    16.632987      1.5022401      21.105583      18.135227     -4.4725963      4192.139       50.406036      47.609915      47.609915     -0.046556672   -0.0014809858   0.0029201262   0.043488038   -0.029093452    0.0011746555   6439.4938      325493.18    
    780000   780            0.99765743    -0.008672579    16.629142      1.4964716      21.105486      18.125613     -4.4763439      5197.5445      50.415741      47.579822      47.579822      0.01119093     0.018667177   -0.055875843   -0.0371487     -0.011487643   -0.054734512    6472.2719      325439.11    
    784000   784            1.0001256      0.0092932702   16.638462      1.5001737      21.110363      18.138635     -4.471901       3883.0361      50.425445      47.596715      47.596715      0.025282791    0.01491981    -0.012322791    0.0058558406   0.045451871    0.032974522    6504.2692      325346.2     
    788000   788            1.0022798      0.001129925    16.637111      1.5034051      21.110462      18.140516     -4.4733515      3710.5558      50.43515       47.562085      47.562085     -0.016700559    0.021854607   -0.0017642723   0.020914129    0.028937348   -0.031521673    6537.8581      325333.11    
    792000   792            1.0018377      0.053852191    16.631687      1.5027418      21.109271      18.134429     -4.4775838      4354.6061      50.444855      47.542521      47.542521      0.060956906    0.0045301996   0.096069468    0.025829796    0.002787478   -0.028068582    6569.982       325247.29    
    796000   796            1.0038701      0.032860771    16.628928      1.5057904      21.10492       18.134719     -4.4759919      4344.7121      50.454559      47.533431      47.533431      0.017540018    0.034420033    0.046622261    0.014416721    0.039532654   -0.016044437    6602.3964      325176.32    
    800000   800            1.0021083      0.011993685    16.637209      1.5031477      21.106304      18.140357     -4.4690949      3787.0786      50.464264      47.570157      47.570157     -0.062193575    0.0032662318   0.094908398   -0.013295396    0.050921075   -0.0023371116   6635.8504      325156.67    
    804000   804            1.0028955      0.059166299    16.646113      1.5043285      21.107979      18.150441     -4.461866       2773.3414      50.473969      47.594668      47.594668     -0.010107108    0.082248596    0.10535741     0.023179316    0.016907249    0.011732924    6668.6078      325102.93    
    808000   808            0.99886213     0.025420182    16.637808      1.4982786      21.105253      18.136087     -4.4674454      4264.7341      50.483673      47.592969      47.592969      0.021692946    0.011910569    0.042657031    0.033141911    0.013154132   -0.036121093    6701.5696      325059.3     
    812000   812            1.0005991      0.029339899    16.635761      1.5008841      21.10807       18.136645     -4.472309       4227.433       50.493378      47.557149      47.557149      0.047014941    0.014577725    0.026427032    0.0039828934   0.035466099   -0.0094417782   6734.3519      325007.12    
    816000   816            0.99908139    -0.043546195    16.632945      1.4986075      21.100859      18.131552     -4.4679144      4769.5867      50.503083      47.556436      47.556436     -0.017542778   -0.020387643   -0.092708164    0.0047493026   0.036701818    0.0099001903   6767.0458      324950.89    
    820000   820            1.0002286     -0.028723775    16.637265      1.5003283      21.10819       18.137593     -4.4709249      4170.4284      50.512787      47.543613      47.543613     -0.041945134   -0.036463528   -0.0077626624   0.022305123    0.028414415    0.064884823    6800.0079      324907.69    
    824000   824            1.002123       0.013284368    16.640593      1.5031698      21.109182      18.143763     -4.4685889      3558.4639      50.522492      47.536439      47.536439     -0.039558488    0.018048541    0.061363051    0.015764158    0.033446367    0.015813657    6832.6328      324848.57    
    828000   828            1.0030622      0.054991976    16.629016      1.5045786      21.104846      18.133595     -4.4758302      4620.5152      50.532197      47.518925      47.518925      0.048235401    0.087013107    0.029727419    0.038484059    0.011113727    0.0054184312   6865.7477      324812.89    
    832000   832            0.99782009     0.0020751152   16.636506      1.4967155      21.105614      18.133222     -4.469108       4678.3857      50.541901      47.534964      47.534964      0.046803867   -0.003797329   -0.036781192   -0.037756141    0.011520869    0.017186615    6899.2136      324793.75    
    836000   836            1.0049474      0.015823375    16.636336      1.5074065      21.103599      18.143743     -4.4672626      3620.0498      50.551606      47.541627      47.541627      0.10557229    -0.052503786   -0.0055983774   0.041584941    0.020914817    0.026381848    6931.6852      324727.89    
    840000   840            0.99763974     0.026919687    16.633951      1.496445       21.104523      18.130396     -4.4705729      5007.8792      50.561311      47.514267      47.514267      0.070890887   -0.03667111     0.046539284   -0.038219037   -0.03760383    -0.00047121034  6965.5414      324726.91    
    844000   844            0.99822639    -0.03708807     16.635213      1.497325       21.105851      18.132538     -4.4706386      4808.0047      50.571015      47.542061      47.542061     -0.022388455   -0.059184269   -0.029691487    0.026850035   -0.0022586628   0.0048700658   6999.3218      324722.09    
    848000   848            1.0008905     -0.026439285    16.638348      1.5013212      21.107625      18.139669     -4.4692778      4097.1043      50.58072       47.547619      47.547619     -0.061111622   -0.033691171    0.015484938   -0.018831655    0.01243341    -0.033491334    7032.8566      324705.66    
    852000   852            1.0041044      0.023905958    16.632837      1.5061419      21.106049      18.138979     -4.4732128      4187.5946      50.590425      47.50002       47.50002       0.019199309    0.099553811   -0.047035246    0.0057214029   0.044303503   -0.017697141    7065.5752      324651.57    
    856000   856            1.0019976     -0.020501513    16.631347      1.5029818      21.104534      18.134329     -4.4731873      4684.3423      50.600129      47.506736      47.506736     -0.0015073329  -0.064675969    0.0046787611  -0.023744354    0.045332861    0.015574355    7097.7873      324574.52    
    860000   860            0.9980902     -0.027820802    16.631325      1.4971207      21.10405       18.128445     -4.4727255      5307.523       50.609834      47.504195      47.504195     -0.011628314   -0.072758737    0.00092464368 -0.03439517     0.032608056   -0.01977492     7130.1492      324504.7     
    864000   864            1.0041963     -0.018525723    16.635751      1.5062798      21.106996      18.142031     -4.4712448      3935.0974      50.619539      47.494865      47.494865     -0.02904649    -0.010981868   -0.015548812    0.0004586678  -0.0079009305  -0.054523032    7162.3851      324429.52    
    868000   868            1.0038335      0.018986517    16.631111      1.5057356      21.106329      18.136847     -4.4752181      4486.4711      50.629243      47.479189      47.479189      0.014337822    0.01890578     0.02371595    -0.0058083484   0.024575126    0.015737108    7194.3567      324342.82    
    872000   872            0.9979788      0.0089624602   16.630473      1.4969536      21.105573      18.127426     -4.4750999      5472.0327      50.638948      47.455834      47.455834     -0.037079151   -0.014007707    0.077974239    0.023019665   -0.027369271   -0.0063006345   7226.296       324255.17    
    876000   876            1.0048548      0.015600533    16.630524      1.5072675      21.105528      18.137792     -4.4750038      4429.0648      50.648653      47.45768       47.45768      -0.033229638    0.010577787    0.06945345     0.0096570232   0.019636253   -0.061737603    7258.2094      324166.88    
    880000   880            1.0062088      0.018891379    16.627287      1.5092984      21.106813      18.136585     -4.4795265      4572.787       50.658357      47.449967      47.449967      0.036016315    0.0094651738   0.011192649    0.019738299   -0.0097728298  -0.010236121    7290.2798      324086.07    
    884000   884            0.9980067      0.013689653    16.628176      1.4969955      21.104396      18.125171     -4.4762208      5762.6875      50.668062      47.464244      47.464244     -0.038656315    0.042394981    0.037330294    0.0020583465  -0.023200477   -0.0098742663   7322.5048      324012.55    
    888000   888            0.99714961    -0.016215067    16.64205       1.4957098      21.109816      18.13776      -4.4677657      4492.77        50.677767      47.494197      47.494197      0.041020044   -0.086378461   -0.0032867837  -0.016571944    0.0054034381  -0.0059814839   7354.9872      323950.74    
    892000   892            0.99576429    -0.053276823    16.647309      1.4936319      21.10582       18.140941     -4.4585113      4186.4693      50.687471      47.518609      47.518609     -0.074077113   -0.0092913963  -0.07646196     0.012912989    0.0030379564   0.03325452     7387.2963      323881.6     
    896000   896            0.99716464    -0.015292797    16.636344      1.4957324      21.102437      18.132076     -4.4660932      5115.1765      50.697176      47.487539      47.487539     -0.00186911    -0.001912347   -0.042096934    0.0010532223   0.051518777   -0.047532723    7419.6635      323815.31    
[...]
  39768000   39768          1.002994      -0.13666302     16.6392        1.5044764      21.105339      18.143676     -4.4661396      126230.54      145.00712      28.082222      28.082222     -0.39482135     0.024358534   -0.039526231    0.021930322   -0.025949172    0.031338919    360360.59      2102.2847    
  39772000   39772          1.0004807     -0.081598326    16.645288      1.5007065      21.105108      18.145995     -4.4598199      126002.76      145.01683      28.083911      28.083911     -0.33671836     0.0070431941   0.084880186    0.022502841   -0.022388179   -0.0075687598   360399.58      2066.0541    
  39776000   39776          1.0050873     -0.13172902     16.650977      1.5076163      21.110372      18.158593     -4.4593951      124721.15      145.02653      28.096778      28.096778     -0.32995036    -0.072232397    0.0069957     -0.010747071   -0.04255901     0.0092688989   360438.17      2029.8208    
  39780000   39780          0.99913119    -0.068655723    16.651031      1.4986822      21.11083       18.149713     -4.4597985      125641.04      145.03624      28.086754      28.086754     -0.31252494     0.055235277    0.051322497    0.0025636435  -0.0028507202   0.021104482    360477.3       1993.5899    
  39784000   39784          0.99968407    -0.12519664     16.648734      1.4995115      21.109116      18.148245     -4.4603827      125801.19      145.04594      28.098785      28.098785     -0.388606      -0.023422583    0.036438649   -0.0039014205   0.0045274146  -0.016587376    360515.48      1957.3533    
  39788000   39788          1.0021814     -0.098136166    16.640149      1.5032575      21.108118      18.143406     -4.4679689      126306.79      145.05564      28.078795      28.078795     -0.29168379    -0.01530696     0.012582247    0.052443446    0.0025344579   0.034270137    360554.02      1921.1182    
  39792000   39792          1.0014278     -0.12275125     16.635371      1.5021271      21.102713      18.137498     -4.4673418      126921.82      145.06535      28.076182      28.076182     -0.31951929    -0.056976228    0.008241778   -0.0081856976  -0.0037384167   0.014067779    360592.32      1884.8815    
  39796000   39796          1.000688      -0.10877685     16.649261      1.5010174      21.1118        18.150278     -4.4625389      125621.81      145.07505      28.078754      28.078754     -0.38269078     0.027215651    0.029144589   -0.0024295188   0.0380239      0.00048463118  360630.49      1848.6436    
  39800000   39800          1.0004608     -0.11438335     16.642092      1.5006766      21.109911      18.142769     -4.4678186      126401         145.08476      28.071064      28.071064     -0.33115827    -0.015483451    0.0034916691   0.046618587    0.0026335611   0.03634111     360669.34      1812.4088    
  39804000   39804          0.99631811    -0.13979157     16.645345      1.4944626      21.107986      18.139808     -4.4626406      126714.06      145.09446      28.082708      28.082708     -0.43016808    -0.0022553766   0.013048752    0.035666045    0.031123585    0.001362923    360707.29      1776.1689    
  39808000   39808          1.0009478     -0.16065644     16.646127      1.501407       21.10566       18.147534     -4.4595337      125931.79      145.10417      28.094771      28.094771     -0.42679202    -0.027606147   -0.02757115     0.033290171   -0.0079280112   0.055344649    360746.08      1739.9328    
  39812000   39812          0.99821904    -0.16474485     16.651752      1.4973139      21.108261      18.149066     -4.4565093      125784.52      145.11387      28.101557      28.101557     -0.42675507    -0.073625163    0.0061456899   0.012649188    0.00793708    -0.011310039    360785.63      1703.6998    
  39816000   39816          0.99935774    -0.10478586     16.639216      1.499022       21.107129      18.138238     -4.467913       126903.67      145.12358      28.076941      28.076941     -0.36506792     0.015881014    0.034829339    0.0087203359  -0.011698926    0.0067687122   360823.5       1667.4584    
  39820000   39820          0.99776865    -0.11138079     16.652854      1.4966384      21.111299      18.149493     -4.4584447      125759.83      145.13328      28.083941      28.083941     -0.35220297     0.0041020294   0.013958577   -0.031130048    0.0083784632  -0.023312733    360862.27      1631.2207    
  39824000   39824          1.0022144     -0.11363607     16.651272      1.5033069      21.109173      18.154579     -4.4579017      125248.22      145.14299      28.091526      28.091526     -0.33066112    -0.0017451948  -0.0085018948   0.042836962    0.028190943    0.01769805     360901         1594.9823    
  39828000   39828          0.99935405    -0.11524756     16.646037      1.4990164      21.109894      18.145053     -4.4638574      126234.08      145.15269      28.084124      28.084124     -0.36514297    -0.019264405    0.038664691    0.010862297    0.001646675    0.00016666484  360939.18      1558.7411    
  39832000   39832          0.99971737    -0.14707417     16.639115      1.4995614      21.105629      18.138676     -4.4665141      126896.78      145.1624       28.071678      28.071678     -0.41344337     0.018264647   -0.046043784    0.024075909    0.031645231   -0.021785276    360977.7       1522.5008    
  39836000   39836          0.99740286    -0.11352341     16.633337      1.4960897      21.10371       18.129427     -4.4703734      127854.34      145.1721       28.061841      28.061841     -0.36972793     0.025018797    0.0041388979  -0.031641949    0.0024889163  -0.012745045    361016.38      1486.2608    
  39840000   39840          1.0015444     -0.088904128    16.639544      1.502302       21.105681      18.141846     -4.4661374      126591.21      145.18181      28.06485       28.06485      -0.35404434     0.059518275    0.027813685   -0.018740102    0.01194409    -0.01942558     361054.35      1450.0175    
  39844000   39844          1.001702      -0.076001858    16.646668      1.5025383      21.110834      18.149206     -4.4641664      125846.57      145.19151      28.065865      28.065865     -0.32837419     0.073956829    0.026411783   -0.018774975    0.026875043   -0.02277787     361092.95      1413.7762    
  39848000   39848          0.99862769    -0.1572707      16.640315      1.4979269      21.104794      18.138242     -4.4644783      126979.68      145.20121      28.072756      28.072756     -0.36748626    -0.040168692   -0.064157142   -0.015291575   -0.055116112   -0.065649012    361131.72      1377.5352    
  39852000   39852          0.99930461    -0.12061994     16.643512      1.4989423      21.107706      18.142454     -4.4641944      126557.79      145.21092      28.063355      28.063355     -0.38466283     0.046228948   -0.023425944   -0.0034745999  -0.030597022    0.032434492    361170.41      1341.2933    
  39856000   39856          1.0010576     -0.066403291    16.64658       1.5015718      21.1041        18.148152     -4.4575196      125983.39      145.22062      28.069101      28.069101     -0.30778643     0.015784263    0.092792293   -0.058984491    0.0025768735   0.0051215277   361208.87      1305.0501    
  39860000   39860          0.99855309    -0.10988183     16.648429      1.497815       21.107623      18.146244     -4.4591939      126188.64      145.23033      28.074554      28.074554     -0.3356634     -0.017745066    0.023762977   -0.0067489507   0.044532685   -0.020142176    361246.73      1268.8044    
  39864000   39864          0.99525764    -0.16014829     16.643199      1.4928719      21.10813       18.136071     -4.4649304      127240.94      145.24003      28.077507      28.077507     -0.37577033    -0.046438507   -0.05823602    -0.02635491    -0.041615121    0.015283691    361285.02      1232.5598    
  39868000   39868          0.99938557    -0.13376985     16.650477      1.4990637      21.112577      18.149541     -4.4621         125870.32      145.24974      28.068777      28.068777     -0.38009783    -0.03078704     0.0095753283  -0.017728263    0.049407434    0.03149507     361324.44      1196.3185    
  39872000   39872          0.99974922    -0.16873529     16.648666      1.4996092      21.110085      18.148275     -4.4614189      126009.62      145.25944      28.071375      28.071375     -0.45527146    -0.033375173   -0.017559242   -0.010699526    0.0082211409   3.673808e-05   361362.02      1160.0707    
  39876000   39876          0.99696734    -0.157461       16.645556      1.4954364      21.111017      18.140993     -4.4654608      126765.82      145.26915      28.0584        28.0584       -0.43896859    -0.01150076    -0.021913659   -0.0012449331  -0.0049023787  -0.027023755    361400.47      1123.8253    
  39880000   39880          0.99490847    -0.10765918     16.637202      1.4923481      21.106611      18.12955      -4.4694088      127947.93      145.27885      28.052875      28.052875     -0.28504325    -0.023624351   -0.014309938    0.011926379    0.031340396    0.022482848    361439.13      1087.5801    
  39884000   39884          1.0012149     -0.10957891     16.640773      1.5018077      21.109622      18.142581     -4.4688489      126621.91      145.28856      28.054616      28.054616     -0.33440948     0.027657532   -0.021984782    0.010160022   -0.016296696   -0.036766932    361477.52      1051.3337    
  39888000   39888          1.0045873     -0.073132025    16.644033      1.5068662      21.105084      18.150899     -4.4610511      125778.97      145.29826      28.060919      28.060919     -0.33140905     0.10922905     0.0027839273  -0.014134753   -0.042364013    0.01142163     361516         1015.087     
  39892000   39892          1.0023309     -0.10866233     16.637896      1.5034817      21.105308      18.141378     -4.4674123      126764.59      145.30797      28.051632      28.051632     -0.31510073    -0.027269263    0.016383007   -0.021792019   -0.01236826    -0.017973476    361554.59      978.84025    
  39896000   39896          1.000339      -0.14921379     16.639901      1.5004939      21.107652      18.140395     -4.4677516      126875.11      145.31767      28.054903      28.054903     -0.35585372    -0.041181559   -0.050606096   -0.03371944     0.027534679   -0.0070843541   361592.77      942.59193    
  39900000   39900          1.002463      -0.10577436     16.645072      1.5036798      21.107726      18.148752     -4.4626545      126028.25      145.32738      28.059567      28.059567     -0.35116093     0.017350537    0.016487323    0.013722796   -0.038464155   -0.0011027888   361631.39      906.34433    
  39904000   39904          1.0031159     -0.098647941    16.643306      1.5046592      21.109151      18.147965     -4.465845       126118.42      145.33708      28.05441       28.05441      -0.30305633    -0.0049662391   0.012078749    0.046886431    0.047500111   -0.048179836    361669.46      870.09494    
  39908000   39908          1.0021882     -0.074721752    16.634944      1.5032676      21.105552      18.138212     -4.4706073      127127.6       145.34678      28.037128      28.037128     -0.3091393      0.076546816    0.0084272281  -0.0064508323   0.013736501    0.015513605    361708.05      833.84636    
  39912000   39912          1.0000545     -0.13512572     16.637975      1.5000671      21.108201      18.138042     -4.4702264      127154.77      145.35649      28.043504      28.043504     -0.43290768    -0.0072839384   0.034814467    0.052742982    0.00085834898 -0.0069052774   361746.88      797.59785    
  39916000   39916          0.99792216    -0.098034556    16.649995      1.4968686      21.10811       18.146864     -4.4581149      126260.87      145.36619      28.060339      28.060339     -0.39432527     0.029730146    0.070491452    0.0075634746   0.0021523858  -0.02782877     361784.99      761.34731    
  39920000   39920          1.0004854     -0.18932055     16.640169      1.5007135      21.103728      18.140882     -4.4635592      126883.04      145.3759       28.06993       28.06993      -0.35651352    -0.16466306    -0.046785065   -0.013629396    0.017448054    0.012207852    361823.7       725.0976     
  39924000   39924          0.99919696    -0.16045164     16.644974      1.4987808      21.107273      18.143755     -4.4622993      126598.65      145.3856       28.057965      28.057965     -0.38726613    -0.045772095   -0.048316705   -0.018229317   -0.0282137      0.0076620973   361862.63      688.8478     
  39928000   39928          1.00481       -0.079892092    16.645815      1.5072004      21.11123       18.153015     -4.4654157      125659.3       145.39531      28.042229      28.042229     -0.31079043     0.030330504    0.040783655   -0.0023310625   0.013040676   -0.018010021    361901.06      652.59658    
  39932000   39932          1.0016632     -0.097164056    16.642         1.5024802      21.108091      18.14448      -4.4660908      126543.86      145.40501      28.039844      28.039844     -0.33550265     0.006927164    0.037083321    0.01571586     0.0025402478   0.017990534    361939.8       616.34544    
  39936000   39936          1.0009944     -0.060378188    16.640807      1.501477       21.105102      18.142284     -4.4642951      126778.53      145.41472      28.033263      28.033263     -0.3245979      0.080440389    0.063022947   -0.010209924    0.022111263    0.041548716    361978.06      580.09304    
  39940000   39940          1.0001638     -0.064719201    16.65119       1.5002311      21.108987      18.151421     -4.4577977      125851.74      145.42442      28.056105      28.056105     -0.25588579     0.0071812792   0.054546912   -0.0054082745   0.0084493171  -0.0029496883   362016.98      543.84123    
  39944000   39944          1.0034981     -0.11105251     16.650147      1.5052324      21.11056       18.15538      -4.4604126      125455.75      145.43413      28.054359      28.054359     -0.3608357      0.005227143    0.022451022   -0.068254888   -0.011057615    0.01259443     362056.32      507.58947    
  39948000   39948          0.99837445    -0.073520693    16.643915      1.4975471      21.109769      18.141462     -4.4658544      126891.82      145.44383      28.027324      28.027324     -0.34099843     0.059116166    0.061320184    0.0052066331   0.0035927183   0.014659948    362094.51      471.33561    
  39952000   39952          1.0027992     -0.098825969    16.638755      1.5041842      21.109258      18.14294      -4.4705022      126749.89      145.45354      28.030351      28.030351     -0.33459425     0.043121928   -0.005005589   -0.0021246982  -0.0026921889   0.023164818    362133.18      435.08192    
  39956000   39956          1.0037649     -0.11214284     16.651314      1.5056326      21.110808      18.156946     -4.4594938      125323.93      145.46324      28.057952      28.057952     -0.3692041     -0.006108565    0.038884154    0.027053038   -0.047969119   -0.016429208    362171.57      398.82744    
  39960000   39960          1.0017468     -0.1419592      16.646407      1.5026056      21.11075       18.149013     -4.4643431      126146.75      145.47295      28.042567      28.042567     -0.35526158    -0.054621116   -0.015994901   -0.016367751    0.013550648   -0.0024418058   362209.79      362.57237    
  39964000   39964          0.99876816    -0.10606627     16.64931       1.4981376      21.107555      18.147447     -4.4582457      126316.89      145.48265      28.043159      28.043159     -0.32464128    -0.02278665     0.029229116    0.0044659587   0.042337084    0.030881723    362248.03      326.31691    
  39968000   39968          1.0000362     -0.085243216    16.642764      1.5000397      21.102172      18.142804     -4.4594079      126802.16      145.49235      28.043467      28.043467     -0.35458812     0.056203457    0.042655015    0.0075954511  -0.024748148   -0.0175643      362286.83      290.06151    
  39972000   39972          0.99925413    -0.069623434    16.640572      1.4988666      21.106818      18.139438     -4.4662463      127156.61      145.50206      28.035755      28.035755     -0.319904       0.045928596    0.065105103   -0.0085991447  -0.023742047   -0.0043145688   362324.96      253.80514    
  39976000   39976          1.0009482     -0.13709087     16.649432      1.5014076      21.111847      18.150839     -4.4624155      125998.17      145.51176      28.047933      28.047933     -0.36509144    -0.055854482    0.0096733105   0.060284284    0.0040609226   0.015114075    362363.08      217.54838    
  39980000   39980          0.9977638     -0.16387923     16.651825      1.4966311      21.108877      18.148456     -4.4570522      126252.3       145.52147      28.063891      28.063891     -0.39042707    -0.056660132   -0.04455048     0.01286144     0.0022126079   0.032941926    362401.17      181.29123    
  39984000   39984          0.99730218    -0.1408336      16.643307      1.4959387      21.105031      18.139245     -4.4617242      127205.79      145.53117      28.047892      28.047892     -0.37389465    -0.006160821   -0.042445327   -0.0063783454  -0.026967188   -0.036371476    362439.23      145.03371    
  39988000   39988          1.0031324     -0.16175001     16.641357      1.5046839      21.109955      18.146041     -4.4685979      126518.82      145.54088      28.031655      28.031655     -0.40807277    -0.027535848   -0.049641421   -0.0348736      0.0030626925   0.0060292468   362478.06      108.77605    
  39992000   39992          1.003402      -0.064570061    16.654345      1.5050883      21.108579      18.159433     -4.4542348      125156.24      145.55058      28.041042      28.041042     -0.37982479     0.037988349    0.14812626    -0.060450837   -0.01637057    -0.013472432    362516.37      72.517777    
  39996000   39996          1.0008489     -0.16254799     16.649667      1.5012586      21.109466      18.150926     -4.4597985      126037.92      145.56029      28.045291      28.045291     -0.45048737    -0.013178787   -0.023977809   -0.023877842    0.012007317   -0.042629606    362555.13      36.259139    
  40000000   40000          1.0013734     -0.056813267    16.642146      1.5020454      21.099923      18.144192     -4.457777       126737.35      145.56999      28.033536      28.033536     -0.24989193     0.040987735    0.038464394    0.036482348    0.032816686    0.0062069249   362593.42      0            
Loop time of 362593 on 18 procs for 40000000 steps with 102500 atoms

Performance: 9531.337 tau/day, 110.316 timesteps/s
98.0% CPU use with 18 MPI tasks x 1 OpenMP threads

MPI task timing breakdown:
Section |  min time  |  avg time  |  max time  |%varavg| %total
---------------------------------------------------------------
Pair    | 2.229e+05  | 2.2874e+05 | 2.3857e+05 | 937.9 | 63.08
Bond    | 11850      | 12507      | 14149      | 604.3 |  3.45
Neigh   | 12818      | 12863      | 12899      |  25.3 |  3.55
Comm    | 39783      | 52779      | 57680      |2142.6 | 14.56
Output  | 942.9      | 942.95     | 942.97     |   0.1 |  0.26
Modify  | 50593      | 52271      | 54984      | 816.7 | 14.42
Other   |            | 2494       |            |       |  0.69

Nlocal:        5694.44 ave        5727 max        5640 min
Histogram: 1 1 0 0 3 4 2 1 2 4
Nghost:         9983.5 ave       10027 max        9940 min
Histogram: 2 1 3 0 3 2 1 4 1 1
Neighs:         224745 ave      229206 max      217523 min
Histogram: 1 0 1 0 2 5 3 2 1 3

Total # of neighbors = 4045407
Ave neighs/atom = 39.467385
Ave special neighs/atom = 6.6256976
Neighbor list builds = 1331933
Dangerous builds = 0

# GENERATION RESTART
write_restart ./out.deform.restart
System init for write_restart ...
Generated 0 of 36 mixed pair_coeff terms from geometric mixing rule
write_data    ./out.deform.data pair ij
System init for write_data ...
Generated 0 of 36 mixed pair_coeff terms from geometric mixing rule
Total wall time: 100:43:15
