LAMMPS (15 Sep 2022)
OMP_NUM_THREADS environment is not set. Defaulting to 1 thread. (src/comm.cpp:98)
  using 1 OpenMP thread(s) per MPI task
# LAMMPS Script for deform
# Generated 12/17/2022

# INIT PARAMS & READ CONF
include   "/work_bgfs/h/harshad/simulation_9/neat_polymer/config_3/system.init"
# UNITS
units		lj
dimension	3
atom_style	bond

# INPUT FILE
pair_style	lj/cut 2.5
bond_style	fene
read_data /work_bgfs/h/harshad/simulation_9/neat_polymer/config_3/quiescent/thermal_replicates/1.npt.data
Reading data file ...
  orthogonal box = (-24.258963 -24.258963 -24.258963) to (24.258963 24.258963 24.258963)
  2 by 3 by 3 MPI processor grid
  reading atoms ...
  102500 atoms
  reading velocities ...
  102500 velocities
  scanning bonds ...
  2 = max bonds/atom
  reading bonds ...
  104500 bonds
Finding 1-2 1-3 1-4 neighbors ...
  special bond factors lj:    0        0        0       
  special bond factors coul:  0        0        0       
     4 = max # of 1-2 neighbors
     4 = max # of 1-3 neighbors
     8 = max # of 1-4 neighbors
    12 = max # of special neighbors
  special bonds CPU = 0.005 seconds
  read_data CPU = 0.974 seconds
include   "/work_bgfs/h/harshad/simulation_9/neat_polymer/config_3/system.settings"
# ATOM TYPE
mass  1  1.0 #backbone
mass  2  1.0 #endmer
mass  3  1.0 #crosslinker
mass  4  1.0 #outer shell
mass  5  1.0 #inner shell 2
mass  6  1.0 #inner-most shell
mass  7  1.0 #center bead
mass  8  1.0 #endmer post crosslinking
mass  9  1.0 #crosslinker post crosslinking

# BOND
bond_coeff * 30.0 1.50 1.0 1.0
special_bonds lj 0.0 1.0 1.0
Finding 1-2 1-3 1-4 neighbors ...
  special bond factors lj:    0        1        1       
  special bond factors coul:  0        0        0       
     4 = max # of 1-2 neighbors
     4 = max # of 1-3 neighbors
     8 = max # of 1-4 neighbors
    12 = max # of special neighbors
  special bonds CPU = 0.003 seconds

# PAIR
pair_coeff  1*9 1*9 1.0 1.0 2.5

pair_modify  shift yes
neigh_modify delay 1 check yes

# MAKE GROUPS
group polymer type 1 2 3 8 9
102500 atoms in group polymer
#group ins     type 1
#group strand  type 1 2 8
#group ends    type 2 8
#group xlinks  type 3 9
#group filler  type 4 5 6 7

# INPUTS FROM SBATCH
variable Temp          equal 1.0
variable gamma_total   equal 2.0
variable gamma_rate    equal 0.00005
variable dt            equal 0.001
variable Nfreq         equal 4000
variable Nrepeat_2     equal 100
variable Nevery_1      equal 1
variable Nrepeat_1     equal 1

variable Run           equal ${gamma_total}/${gamma_rate}/${dt}
variable Run           equal 2/${gamma_rate}/${dt}
variable Run           equal 2/5e-05/${dt}
variable Run           equal 2/5e-05/0.001

# RUN OPTIONS
run_style verlet
timestep  ${dt}
timestep  0.001

# RESTART
restart  ${Nfreq} cycle.1.restart cycle.2.restart
restart  4000 cycle.1.restart cycle.2.restart

## SAVE RESTARTS EVERY 10% EXTENSION
#variable RestFreq      equal 0.1/${gamma_rate}/${dt}
#restart  ${RestFreq} deform.*.restart
#
# COMPUTE ke/atom, pe/atom, pxx/atom, position and time-avg
compute     ke_atm          all     ke/atom
compute     p_atm           all     stress/atom NULL
compute     pe_atm          all     pe/atom
compute     ebond_atm       all     pe/atom bond
compute     posit_atm       all     property/atom x y z
fix         avg_ke_atm_1    all     ave/atom ${Nevery_1} ${Nrepeat_1} ${Nfreq} c_ke_atm
fix         avg_ke_atm_1    all     ave/atom 1 ${Nrepeat_1} ${Nfreq} c_ke_atm
fix         avg_ke_atm_1    all     ave/atom 1 1 ${Nfreq} c_ke_atm
fix         avg_ke_atm_1    all     ave/atom 1 1 4000 c_ke_atm
fix         avg_pxx_atm_1   all     ave/atom ${Nevery_1} ${Nrepeat_1} ${Nfreq} c_p_atm[*]
fix         avg_pxx_atm_1   all     ave/atom 1 ${Nrepeat_1} ${Nfreq} c_p_atm[*]
fix         avg_pxx_atm_1   all     ave/atom 1 1 ${Nfreq} c_p_atm[*]
fix         avg_pxx_atm_1   all     ave/atom 1 1 4000 c_p_atm[*]
fix         avg_pe_atm_1    all     ave/atom ${Nevery_1} ${Nrepeat_1} ${Nfreq} c_pe_atm
fix         avg_pe_atm_1    all     ave/atom 1 ${Nrepeat_1} ${Nfreq} c_pe_atm
fix         avg_pe_atm_1    all     ave/atom 1 1 ${Nfreq} c_pe_atm
fix         avg_pe_atm_1    all     ave/atom 1 1 4000 c_pe_atm
#fix         avg_posit_atm_1 all     ave/atom ${Nevery_1} ${Nrepeat_1} ${Nfreq} c_posit_atm[1] c_posit_atm[2] c_posit_atm[3]
dump        dump_1 all custom ${Nfreq} ${out_dir}traj.${Nevery_1}_${Nrepeat_1}_${Nfreq}.xyz mol type x y z f_avg_ke_atm_1 f_avg_pe_atm_1 f_avg_pxx_atm_1[*]
dump        dump_1 all custom 4000 ${out_dir}traj.${Nevery_1}_${Nrepeat_1}_${Nfreq}.xyz mol type x y z f_avg_ke_atm_1 f_avg_pe_atm_1 f_avg_pxx_atm_1[*]
dump        dump_1 all custom 4000 /shares_bgfs/dssimmons_data/harshad/deform/neat_polymer/config_3/1_deformwork_bgfs--h--harshad--simulation_9--neat_polymer--config_3--1_deform--traj.${Nevery_1}_${Nrepeat_1}_${Nfreq}.xyz mol type x y z f_avg_ke_atm_1 f_avg_pe_atm_1 f_avg_pxx_atm_1[*]
dump        dump_1 all custom 4000 /shares_bgfs/dssimmons_data/harshad/deform/neat_polymer/config_3/1_deformwork_bgfs--h--harshad--simulation_9--neat_polymer--config_3--1_deform--traj.1_${Nrepeat_1}_${Nfreq}.xyz mol type x y z f_avg_ke_atm_1 f_avg_pe_atm_1 f_avg_pxx_atm_1[*]
dump        dump_1 all custom 4000 /shares_bgfs/dssimmons_data/harshad/deform/neat_polymer/config_3/1_deformwork_bgfs--h--harshad--simulation_9--neat_polymer--config_3--1_deform--traj.1_1_${Nfreq}.xyz mol type x y z f_avg_ke_atm_1 f_avg_pe_atm_1 f_avg_pxx_atm_1[*]
dump        dump_1 all custom 4000 /shares_bgfs/dssimmons_data/harshad/deform/neat_polymer/config_3/1_deformwork_bgfs--h--harshad--simulation_9--neat_polymer--config_3--1_deform--traj.1_1_4000.xyz mol type x y z f_avg_ke_atm_1 f_avg_pe_atm_1 f_avg_pxx_atm_1[*]
dump_modify dump_1 append yes sort id

# COMPUTE a separate pe and ke for each group, AVG & SAVE
compute   pe_polymer    all reduce  sum c_pe_atm
compute   ke_polymer    all reduce  sum c_ke_atm
compute   ebond_polymer all reduce  sum c_ebond_atm
compute   pxx_polymer   all reduce  sum c_p_atm[1] c_p_atm[2] c_p_atm[3]
compute   pxy_polymer   all reduce  sum c_p_atm[4] c_p_atm[5] c_p_atm[6]
fix 		  avgEnergy     all     ave/time ${Nevery_1} ${Nrepeat_2} ${Nfreq} c_pe_polymer c_ke_polymer c_ebond_polymer c_pxy_polymer[1] c_pxy_polymer[2] c_pxy_polymer[3] file energy.avg.csv
fix 		  avgEnergy     all     ave/time 1 ${Nrepeat_2} ${Nfreq} c_pe_polymer c_ke_polymer c_ebond_polymer c_pxy_polymer[1] c_pxy_polymer[2] c_pxy_polymer[3] file energy.avg.csv
fix 		  avgEnergy     all     ave/time 1 100 ${Nfreq} c_pe_polymer c_ke_polymer c_ebond_polymer c_pxy_polymer[1] c_pxy_polymer[2] c_pxy_polymer[3] file energy.avg.csv
fix 		  avgEnergy     all     ave/time 1 100 4000 c_pe_polymer c_ke_polymer c_ebond_polymer c_pxy_polymer[1] c_pxy_polymer[2] c_pxy_polymer[3] file energy.avg.csv
fix       avgPxx_all    all     ave/time ${Nevery_1} ${Nfreq} ${Nfreq}     c_pxx_polymer[1] c_pxx_polymer[2] c_pxx_polymer[3]                                           file pxx.all.avg.csv
fix       avgPxx_all    all     ave/time 1 ${Nfreq} ${Nfreq}     c_pxx_polymer[1] c_pxx_polymer[2] c_pxx_polymer[3]                                           file pxx.all.avg.csv
fix       avgPxx_all    all     ave/time 1 4000 ${Nfreq}     c_pxx_polymer[1] c_pxx_polymer[2] c_pxx_polymer[3]                                           file pxx.all.avg.csv
fix       avgPxx_all    all     ave/time 1 4000 4000     c_pxx_polymer[1] c_pxx_polymer[2] c_pxx_polymer[3]                                           file pxx.all.avg.csv

# TIME-AVG Ly
variable Ly equal ly
fix       avgLy         all     ave/time ${Nevery_1} ${Nfreq} ${Nfreq}     v_Ly  file Ly.avg.csv
fix       avgLy         all     ave/time 1 ${Nfreq} ${Nfreq}     v_Ly  file Ly.avg.csv
fix       avgLy         all     ave/time 1 4000 ${Nfreq}     v_Ly  file Ly.avg.csv
fix       avgLy         all     ave/time 1 4000 4000     v_Ly  file Ly.avg.csv

# SIMULATION FIXES
fix  npt        all npt temp ${Temp} ${Temp} 2.0 y 0 0 5 z 0 0 5 couple yz
fix  npt        all npt temp 1 ${Temp} 2.0 y 0 0 5 z 0 0 5 couple yz
fix  npt        all npt temp 1 1 2.0 y 0 0 5 z 0 0 5 couple yz
fix  mom        all momentum 10000 linear 1 1 1
fix  deform     all deform 1 x erate ${gamma_rate} remap x units box
fix  deform     all deform 1 x erate 5e-05 remap x units box

# THERMO
variable  thermo_frq equal ${Nfreq}
variable  thermo_frq equal 4000
thermo    ${thermo_frq}
thermo    4000
thermo_style  custom step time temp press pe ke ebond etotal epair ecouple lx ly lz pxx pyy pzz pxy pxz pyz cpu cpuremain

# deform
run ${Run}
run 40000000
Generated 0 of 36 mixed pair_coeff terms from geometric mixing rule
Neighbor list info ...
  update: every = 1 steps, delay = 1 steps, check = yes
  max neighbors/atom: 2000, page size: 100000
  master list distance cutoff = 2.8
  ghost atom cutoff = 2.8
  binsize = 1.4, bins = 35 35 35
  1 neighbor lists, perpetual/occasional/extra = 1 0 0
  (1) pair lj/cut, perpetual
      attributes: half, newton on
      pair build: half/bin/newton
      stencil: half/bin/3d
      bin: standard
WARNING: Inconsistent image flags (src/domain.cpp:819)
Per MPI rank memory allocation (min/avg/max) = 12.77 | 12.77 | 12.78 Mbytes
   Step          Time           Temp          Press          PotEng         KinEng         E_bond         TotEng         E_pair        Ecouple           Lx             Ly             Lz            Pxx            Pyy            Pzz            Pxy            Pxz            Pyz            CPU          CPULeft    
         0   0              1.0004791     -0.025636804    16.638168      1.500704       21.109291      18.138872     -4.4711222      0              48.517927      48.517927      48.517927     -0.039344962   -0.01804274    -0.01952271     0.019921083    0.030368947   -0.052474782    0              0            
      4000   4              0.99623762     0.03165479     16.633629      1.4943419      21.105154      18.127971     -4.4715249      1137.4997      48.52763       48.514479      48.514479      0.037662666    0.0057805147   0.051521188    0.020465691   -0.0029981641   0.0094169479   33.763154      337597.79    
      8000   8              0.99427341    -0.064429038    16.63557       1.4913956      21.105407      18.126965     -4.4698378      1261.0283      48.537334      48.52469       48.52469      -0.081569117   -0.040765702   -0.070952296    0.026784327    0.030070776    0.028367858    67.7474        338669.26    
     12000   12             1.0002591     -0.025495473    16.633434      1.500374       21.106054      18.133808     -4.4726201      580.24688      48.547037      48.491534      48.491534     -0.032717397    0.0076856048  -0.051454627    0.020629196   -0.0068524748  -0.056819893    101.58062      338500.51    
     16000   16             0.99500445    -0.025353218    16.641456      1.4924921      21.104107      18.133948     -4.4626511      586.44022      48.556741      48.522525      48.522525     -0.033462543   -0.051406104    0.0088089916   0.014709964    0.0092407522  -0.066416605    135.37057      338291.06    
     20000   20             1.0006497     -0.025885339    16.634867      1.5009598      21.106602      18.135827     -4.4717344      414.15365      48.566445      48.485087      48.485087     -0.034869038   -0.042421985   -0.00036499494 -0.0080220909   0.015657161    0.00024535557  169.46267      338755.89    
     24000   24             1.0009396     -0.0015977419   16.623645      1.5013948      21.108506      18.12504      -4.4848606      1539.8623      48.576148      48.449438      48.449438     -0.031209091    0.024171368    0.0022444975   0.019377964   -0.04310735    -0.011900486    203.94596      339705.98    
     28000   28             1.0023345      0.0079276412   16.624947      1.5034871      21.10497       18.128434     -4.4800224      1212.3161      48.585852      48.434906      48.434906      0.0055306837   0.020279824   -0.0020275846   0.0021717596  -0.023025234   -0.0098758315   238.01373      339781.6     
     32000   32             0.99842883     0.018027306    16.640134      1.4976286      21.108986      18.137763     -4.4688515      276.72542      48.595555      48.474625      48.474625      0.075363824    0.0186261     -0.039908006   -0.031061174    0.022193724    0.0035051365   272.38961      340214.62    
     36000   36             0.99841052    -0.023759742    16.637654      1.4976012      21.106634      18.135255     -4.4689802      554.39604      48.605259      48.477068      48.477068      0.011866675   -0.048498553   -0.034647347    0.027908315   -0.016962884    0.014858147    306.54513      340299.16    
     40000   40             0.99796493     0.0010186984   16.628705      1.4969328      21.101011      18.125638     -4.4723065      1560.3921      48.614962      48.458238      48.458238     -0.0071989571  -0.015449901    0.025704953    0.043187042    0.0037067709  -0.01152533     340.86542      340524.56    
     44000   44             1.0014491     -0.0010272424   16.639186      1.502159       21.107006      18.141345     -4.4678203     -29.090038      48.624666      48.46332       48.46332       0.062127736   -0.0040839917  -0.061125471   -0.015091987    0.010093695    0.012510989    374.82571      340375.82    
     48000   48             1.0034267      0.039268903    16.632088      1.5051254      21.105595      18.137213     -4.4735076      414.54493      48.63437       48.439072      48.439072      0.070646153    0.00162239     0.045538166   -0.01798421     0.015694761    0.027398562    408.65497      340137.15    
     52000   52             0.99577064    -0.022637371    16.635054      1.4936414      21.105481      18.128695     -4.4704271      1308.3493      48.644073      48.457103      48.457103     -0.024963642   -0.030179611   -0.012768859   -0.041950587    0.021212388    0.011114076    443.05187      340366.08    
     56000   56             1.0039372     -0.025100803    16.632569      1.505891       21.103594      18.13846      -4.4710247      327.92062      48.653777      48.452461      48.452461     -0.039728759    0.013459998   -0.049033647    0.019666172    0.030045868    0.0036673035   477.28478      340440.42    
     60000   60             1.001806       0.024845361    16.63118       1.5026943      21.105628      18.133875     -4.4744473      818.31746      48.66348       48.44443       48.44443       0.03232792     0.054388568   -0.012180405   -0.018025197    0.020292397    0.0040058336   511.46235      340463.44    
     64000   64             0.99668374    -0.012621357    16.627368      1.495011       21.105771      18.122379     -4.4784027      2016.7279      48.673184      48.417158      48.417158      0.055113157   -0.057902809   -0.035074418   -0.034073788    0.028021584   -0.0094276177   545.91522      340651.1     
     68000   68             0.99780502    -0.039220559    16.635925      1.4966929      21.106756      18.132617     -4.4708318      987.35762      48.682888      48.433652      48.433652     -0.028719659   -0.02764462    -0.061297398    0.029710702    0.022915556   -0.00024315684  580.21771      340724.32    
     72000   72             0.99884211     0.010223964    16.638832      1.4982485      21.108104      18.13708      -4.469273       550.48988      48.692591      48.434977      48.434977     -0.0082889892   0.00089400776  0.038066872    0.031999482   -0.0017487665   0.054309406    614.28011      340652.45    
     76000   76             0.99506721    -0.054202058    16.637398      1.4925862      21.104731      18.129984     -4.467333       1298.1651      48.702295      48.452504      48.452504     -0.012322621   -0.043882177   -0.10640137     0.033272437    0.0097203039  -0.059533086    648.78059      340814.69    
     80000   80             0.99779726     0.028548754    16.637821      1.4966813      21.106784      18.134503     -4.4689624      855.78929      48.711998      48.423247      48.423247     -0.018983178    0.059078931    0.045550508   -0.0057714696  -0.027665694    0.0037413463   683.52131      341077.13    
     84000   84             1.0031625     -0.029750385    16.637988      1.504729       21.109094      18.142717     -4.4711056      34.394901      48.721702      48.427724      48.427724     -0.054584489   -0.017442981   -0.017223687    0.0082228069   0.024846428    0.023224263    717.84848      341114.76    
     88000   88             1.0009261     -0.042868386    16.629168      1.5013745      21.106084      18.130543     -4.4769162      1302.9933      48.731405      48.40446       48.40446      -0.064442557    0.010499339   -0.074661938    0.039765239   -0.020332265   -0.0088107268   752.85465      341453.81    
     92000   92             1.0025703      0.059612841    16.628801      1.5038408      21.103867      18.132642     -4.4750658      1108.5687      48.741109      48.38797       48.38797       0.056382559    0.055230987    0.067224976    0.063241977    0.004881059    0.008205215    787.95763      341802.32    
     96000   96             1.0063175      0.039515607    16.638543      1.5094616      21.108447      18.148005     -4.4699044     -445.47469      48.750813      48.386928      48.386928      0.050350107    0.027753143    0.040443571   -0.011185586    0.043594782   -0.018980651    822.55862      341910.2     
    100000   100            1.0035967     -0.0038830906   16.633651      1.5053803      21.10947       18.139031     -4.475819       494.7575       48.760516      48.366691      48.366691      0.011613311   -0.014441446   -0.0088211371  -0.014000446    0.043826499    0.00043511375  857.38928      342098.32    
    104000   104            0.99610279     0.052278011    16.637187      1.4941396      21.110092      18.131327     -4.4729044      1304.9109      48.77022       48.375333      48.375333      0.054659393    0.052880382    0.049294258    0.012167487   -0.0095705956  -0.023580771    892.49498      342374.81    
    108000   108            1.0057096      0.015622717    16.633968      1.5085498      21.110747      18.142517     -4.4767794      178.12245      48.779923      48.368974      48.368974      0.052330543   -0.010078804    0.0046164116  -0.0043002045   0.042410192   -0.0018772288   927.11597      342449.17    
    112000   112            1.0022962      0.014263276    16.635029      1.5034296      21.107417      18.138459     -4.4723873      614.32199      48.789627      48.383558      48.383558     -0.019380517    0.024132001    0.038038345    0.021928452   -0.005311548   -0.002540359    962.13061      342655.95    
    116000   116            1.001629       0.0033770891   16.630151      1.5024288      21.104042      18.13258      -4.4738913      1236.9403      48.799331      48.367393      48.367393      0.002818429   -0.0056954956   0.013008334    0.0032424705  -0.0063984243   0.00017671427  996.95386      342780.24    
    120000   120            0.99818103    -0.049470234    16.633898      1.4972569      21.106404      18.131155     -4.472505       1403.3427      48.809034      48.38302       48.38302      -0.038527205   -0.040691682   -0.069191814    0.0076692815   0.01057501    -0.0079855591   1032.2349      343046.07    
    124000   124            1.0021846      0.0069418089   16.640806      1.5032623      21.107881      18.144069     -4.4670746      99.82112       48.818738      48.384889      48.384889     -0.020579086    0.0074392914   0.033965221    0.023616438    0.017083459    0.020565429    1067.7028      343352.57    
    128000   128            1.0017451     -0.033292644    16.629652      1.502603       21.106544      18.132255     -4.4768924      1331.0783      48.828441      48.344952      48.344952     -0.073247352    0.015335091   -0.041965672    0.0098103566   0.0079100713  -0.014204307    1102.6915      343488.41    
    132000   132            0.9995156     -0.047733578    16.630436      1.4992588      21.104449      18.129694     -4.4740138      1613.9924      48.838145      48.345099      48.345099     -0.07733214     0.0033052801  -0.069173874   -0.045759982    0.027554384    0.0036584337   1138.2435      343784.04    
    136000   136            1.0041532      0.048129104    16.636738      1.5062151      21.109397      18.142953     -4.4726594      275.63634      48.847849      48.34852       48.34852       0.049732045    0.055176321    0.039478946    0.024073695    0.041850468   -0.011243516    1173.3278      343923.08    
    140000   140            0.99909982     0.032120599    16.642949      1.4986351      21.109047      18.141584     -4.4660972      436.73442      48.857552      48.362177      48.362177      0.010729156    0.044969877    0.040662765   -0.027288112   -0.0091245612   0.031740588    1208.3348      344030.17    
    144000   144            0.99829607    -0.023102364    16.636128      1.4974295      21.104886      18.133558     -4.4687573      1279.4578      48.867256      48.347304      48.347304      0.015751378   -0.032275638   -0.052782832    0.00095023604 -0.003195255   -0.027346733    1243.3242      344124.51    
    148000   148            0.99787666    -0.038522049    16.634127      1.4968004      21.108444      18.130927     -4.4743164      1569.3933      48.876959      48.342287      48.342287     -0.099490018   -0.055072267    0.038996139   -0.013678125   -0.025108467    0.014355911    1278.1175      344159.05    
    152000   152            0.99668242     0.0053979803   16.63525       1.495009       21.107059      18.130259     -4.4718095      1658.3162      48.886663      48.336788      48.336788     -0.029783682    0.078125011   -0.032147388    0.017368356    0.012987833    0.038495789    1313.3668      344309.46    
    156000   156            0.99671898    -0.089445771    16.643005      1.4950639      21.109093      18.138069     -4.4660888      878.5581       48.896366      48.36979       48.36979      -0.10857375    -0.070358946   -0.089404619   -0.01952072    -0.018893263    0.021095955    1348.2652      344360.76    
    160000   160            1.0026843     -0.070985184    16.638052      1.5040118      21.107599      18.142064     -4.4695469      489.71447      48.90607       48.343876      48.343876     -0.030813209   -0.095027878   -0.087114465    0.043898059   -0.01159175     0.0060340017   1383.8397      344576.07    
    164000   164            0.9971014     -0.078066437    16.639985      1.4956375      21.109617      18.135623     -4.4696321      1170.2488      48.915774      48.340806      48.340806     -0.047823769   -0.03977603    -0.14659951    -0.030066453   -0.020381392    0.013001436    1419.4106      344778.3     
    168000   168            0.99604029     0.0090908584   16.641144      1.4940459      21.110886      18.13519      -4.4697421      1235.0561      48.925477      48.312348      48.312348      0.015628942    0.0097935581   0.0018500752   0.0031151474   0.053769132    0.032328477    1454.7899      344923.76    
    172000   172            0.99398036    -0.016834258    16.63696       1.490956       21.10678       18.127916     -4.4698199      2001.3049      48.935181      48.300544      48.300544     -0.034510229   -0.015587694   -0.00040484994  0.034434498   -0.035754979    0.0048274122   1490.0143      345024.93    
    176000   176            0.99918638    -0.033398575    16.638455      1.4987649      21.108074      18.13722      -4.4696193      1068.2537      48.944884      48.309532      48.309532     -0.063166471   -0.0086923491  -0.028336906    0.048822895   -0.01367517    -0.040604967    1525.472       345172.7     
    180000   180            1.0009225      0.00547045     16.640396      1.5013691      21.105177      18.141765     -4.4647806      622.84895      48.954588      48.297005      48.297005     -0.032444568    0.009588803    0.039267115    0.027367581    0.019487481    0.050991817    1561.4613      345429.94    
    184000   184            0.99822056     0.0015378808   16.632157      1.4973162      21.105032      18.129474     -4.4728747      1903.2537      48.964292      48.285347      48.285347     -0.062672246    0.017907113    0.049378775    0.026901774   -0.012427744   -0.021421655    1596.4059      345448.36    
    188000   188            0.997817      -0.05305967     16.638335      1.4967109      21.102331      18.135046     -4.4639964      1352.5343      48.973995      48.336706      48.336706     -0.071427631    0.0014624849  -0.089213865    0.0062111468   0.0029722465   0.052166852    1632.1438      345632.5     
    192000   192            0.99938971    -0.055244692    16.642557      1.4990699      21.109199      18.141627     -4.4666417      698.9833       48.983699      48.328346      48.328346     -0.071992689   -0.040809383   -0.052932003    0.0032564313  -0.0064560898  -0.033642957    1667.2928      345685.37    
    196000   196            0.99496645     0.0051439906   16.638511      1.4924351      21.106914      18.130946     -4.4684029      1814.1688      48.993402      48.288228      48.288228      0.051760839   -0.068948337    0.032619469   -0.00072750266 -0.0045136754  -0.042616099    1702.3212      345710.18    
    200000   200            1.0002949      0.0083038555   16.628504      1.5004277      21.10821       18.128932     -4.479706       2040.5865      49.003106      48.252357      48.252357      0.010185856   -0.012785081    0.027510792   -0.0060046371  -0.022613393    0.015061076    1737.229       345708.57    
    204000   204            1.0045207     -0.02370095     16.633267      1.5067663      21.105224      18.140034     -4.4719568      923.27424      49.012809      48.28434       48.28434      -0.028824185    0.024256684   -0.06653535    -0.0024039395  -0.015660124   -0.00020529991  1772.2628      345730.26    
    208000   208            0.99867622    -0.014463204    16.639519      1.4979997      21.1079        18.137518     -4.4683815      1201.783       49.022513      48.267783      48.267783     -0.055343882    0.032413102   -0.020458832   -0.026833841   -0.0042711935  -0.016875849    1807.5135      345791.23    
    212000   212            0.99803336    -0.0012009614   16.632441      1.4970354      21.104857      18.129476     -4.4724161      2046.2772      49.032217      48.24526       48.24526      -0.027762058   -0.0044485132   0.028607687    0.0022810795   0.040378378    0.0023452323   1842.612       345820.03    
    216000   216            1.0000473     -0.015711623    16.63584       1.5000564      21.108767      18.135896     -4.472927       1408.206       49.04192       48.247415      48.247415     -0.024341168    0.01122358    -0.034017281    0.011966834   -0.032639709   -0.0025310064   1877.8983      345881.05    
    220000   220            0.99788027     0.018907435    16.631933      1.4968058      21.10737       18.128739     -4.475437       2162.22        49.051624      48.228909      48.228909      0.026481389   -0.010398945    0.040639862   -0.013241813    0.016524808    0.025434345    1912.8455      345877.24    
    224000   224            0.99791223    -0.0079538826   16.633834      1.4968537      21.105725      18.130688     -4.4718907      1982.7679      49.061327      48.233015      48.233015     -0.038087785    0.017401328   -0.0031751905  -0.048000736    0.029896101    0.028429665    1947.621       345841.85    
    228000   228            1.001978      -0.00053190482  16.636724      1.5029523      21.111854      18.139676     -4.4751298      1082.0393      49.071031      48.221525      48.221525     -0.021520186    0.037017162   -0.01709269    -0.0023455348  -0.0023532532  -0.037043326    1982.4728      345819.77    
    232000   232            1.0062191      0.070747444    16.628155      1.5093139      21.105021      18.137469     -4.4768659      1328.7232      49.080735      48.206705      48.206705      0.059279128    0.10484749     0.048115716   -0.030999156   -0.013525654   -0.0053181509   2017.7804      345875.38    
    236000   236            0.99998194    -0.023249395    16.636325      1.4999583      21.103047      18.136283     -4.4667224      1470.6566      49.090438      48.235692      48.235692      0.031126651   -0.047144974   -0.053729863   -0.01157564    -0.013090729   -0.0083076367   2053.0656      345924.15    
    240000   240            1.0035557      0.00041782155  16.636861      1.5053188      21.107197      18.14218      -4.4703364      886.59733      49.100142      48.225257      48.225257      0.039564504    0.00050923707 -0.038820277    0.00050575949 -0.013060818   -0.012476785    2088.8282      346049.21    
    244000   244            0.99714986    -0.014920883    16.641294      1.4957102      21.108847      18.137004     -4.4675526      1437.469       49.109845      48.221765      48.221765     -0.028322874   -0.0088650655  -0.0075747084   0.012130656    0.005239341    0.02492796     2123.8579      346049.57    
    248000   248            0.99472783     0.045067384    16.635337      1.4920772      21.106802      18.127414     -4.471465       2440.2783      49.119549      48.211927      48.211927      0.049919911    0.058554549    0.026727691   -0.020330083    0.027413338   -0.017185168    2159.4118      346132.81    
    252000   252            0.99536416    -0.050160276    16.64138       1.4930317      21.106185      18.134412     -4.4648048      1743.3516      49.129252      48.242102      48.242102     -0.071669387   -0.027580882   -0.051230561    0.0059792525  -0.013979375    0.016523915    2194.828       346190.58    
    256000   256            1.0011615     -0.01002302     16.637246      1.5017276      21.107601      18.138973     -4.4703555      1296.3367      49.138956      48.219253      48.219253     -0.059383379    0.0029928784   0.02632144    -0.017618243    0.010155925    0.032176774    2229.6274      346149.66    
    260000   260            0.99785333    -0.0595367      16.639102      1.4967654      21.108778      18.135868     -4.4696754      1634.8835      49.14866       48.219307      48.219307     -0.063569792   -0.03084871    -0.084191598   -0.025794358    0.019545967   -0.057474627    2264.6397      346141.46    
    264000   264            0.99334102    -0.039438893    16.632029      1.489997       21.107365      18.122026     -4.4753358      3073.9177      49.158363      48.190887      48.190887     -0.021007127   -0.04099148    -0.056318072    0.032926409   -0.021174195    0.020636153    2299.8582      346163.51    
    268000   268            0.99909552    -0.015549425    16.634051      1.4986287      21.106509      18.13268      -4.4724581      2002.0912      49.168067      48.187056      48.187056      0.020296789   -0.035768346   -0.031176718    0.023833956   -0.036598226    0.049907347    2334.292       346067.49    
    272000   272            1.0009009     -0.017857056    16.63669       1.5013367      21.107781      18.138027     -4.4710908      1474.2635      49.17777       48.167838      48.167838      0.026886119   -0.036487215   -0.04397007    -0.0096210446   0.010724468   -0.012165975    2369.6269      346104.91    
    276000   276            1.0019907      0.017875522    16.626949      1.5029715      21.103982      18.129921     -4.4770328      2325.25        49.187474      48.163236      48.163236     -0.095634445    0.079781362    0.069479648   -0.035544615   -0.028930467    0.022024087    2404.8883      346129.65    
    280000   280            0.99955901     0.069755504    16.629595      1.4993239      21.105574      18.128919     -4.4759785      2447.9244      49.197178      48.148728      48.148728      0.11533654     0.039990474    0.053939496   -0.018521678   -0.0096032098  -0.0087602499   2440.286       346172       
    284000   284            1.0030997     -0.01390389     16.637831      1.5046349      21.110223      18.142466     -4.4723919      1079.6757      49.206881      48.158194      48.158194     -0.0052629731  -0.017236619   -0.019212077    0.014387552   -0.017747      -0.00021452695  2475.4155      346174.66    
    288000   288            1.0021452      0.0033547463   16.631492      1.5032032      21.104897      18.134695     -4.4734046      1896.707       49.216585      48.151479      48.151479      0.046952294   -0.048252252    0.011364197    0.013315167   -0.023887966    0.028249238    2510.7998      346211.39    
    292000   292            1.0015277      0.016266736    16.626747      1.5022769      21.105193      18.129024     -4.4784451      2498.3103      49.226288      48.122431      48.122431      0.048095       0.0046080058  -0.0039027972   0.0090227393   0.01181482     0.032380409    2546.0385      346226.36    
    296000   296            1.0039421     -0.043223748    16.63362       1.5058985      21.104283      18.139519     -4.4706622      1443.0401      49.235992      48.162653      48.162653     -0.03177505    -0.074392872   -0.023503321    0.0043664685  -0.030950874   -0.0142761      2581.4811      346267.32    
    300000   300            1.0027109      0.027472186    16.632794      1.5040517      21.107118      18.136846     -4.4743235      1737.3458      49.245696      48.139359      48.139359     -0.041781612    0.10009862     0.024099547    0.034629809   -0.010200831   -0.0011346462   2616.1862      346208.64    
    304000   304            0.99850739     0.046518218    16.63277       1.4977465      21.106706      18.130516     -4.4739361      2407.0881      49.255399      48.129311      48.129311     -0.0051765694   0.0092666029   0.13546462    -0.029397802    0.022101579    0.017171238    2651.396       346216.5     
    308000   308            0.99903835     0.012922349    16.638502      1.4985429      21.110503      18.137044     -4.4720019      1758.3932      49.265103      48.138491      48.138491      0.018885541    0.025578816   -0.0056973093  -0.015278838   -0.0051390203  -0.015433916    2686.1349      346162.55    
    312000   312            0.99937623     0.0012287486   16.64966       1.4990497      21.110087      18.14871      -4.4604275      583.17784      49.274806      48.17204       48.17204       0.023947072   -0.00056687911 -0.019693947   -0.019743162    0.006484583   -0.0058911741   2720.8881      346110.92    
    316000   316            1.0005374     -0.0099920485   16.63717       1.5007914      21.105894      18.137961     -4.4687246      1705.3254      49.28451       48.158956      48.158956     -0.07623102     0.023978225    0.02227665    -0.028550913    0.020890316    0.020275293    2755.9596      346099.68    
    320000   320            0.9976697      0.022995135    16.63914       1.49649        21.104396      18.13563      -4.4652563      1964.8864      49.294213      48.14018       48.14018       0.011652002    0.003689051    0.053644353    0.028847897   -0.032704121   -0.025131078    2791.3399      346126.15    
    324000   324            1.0018253     -0.038096495    16.640571      1.5027233      21.110074      18.143295     -4.4695024      1199.7472      49.303917      48.129157      48.129157     -0.056928503   -0.037162125   -0.020198859   -0.013827381    0.019965396    0.0094823074   2825.9124      346052.17    
    328000   328            1.0058612      0.0063191204   16.634547      1.508777       21.105975      18.143324     -4.4714281      1217.212       49.313621      48.096911      48.096911     -0.023216183   -0.0048987956   0.04707234    -0.03782245     0.020953183   -0.013423123    2860.7375      346009.69    
    332000   332            0.99850976     0.045674414    16.634497      1.49775        21.107503      18.132247     -4.4730058      2372.8216      49.323324      48.107149      48.107149      0.010865073    0.023402709    0.10275546    -0.018610706    0.016946366   -0.038149638    2895.7585      345990.8     
    336000   336            1.0028912      0.0076354875   16.636551      1.5043221      21.105763      18.140873     -4.4692124      1508.9103      49.333028      48.110558      48.110558      0.0065006846   0.023523199   -0.0071174213   0.042174947   -0.061857715    0.001446968    2931.0676      346005.55    
    340000   340            1.0047608     -0.00075161803  16.640446      1.5071265      21.106309      18.147573     -4.4658627      842.61399      49.342731      48.120131      48.120131     -0.025679507   -0.055367711    0.078792364   -0.028836573    3.3707586e-05 -0.012024438    2965.9014      345963.67    
    344000   344            1.0019448     -0.026867386    16.629351      1.5029025      21.104227      18.132253     -4.4748765      2432.9929      49.352435      48.083016      48.083016     -0.046420479   -0.031382783   -0.0027988957  -0.0040158914  -0.0020525793   0.026906595    3001.0946      345963.39    
    348000   348            1.0021652     -0.031694212    16.629835      1.5032331      21.104574      18.133069     -4.4747385      2369.7894      49.362139      48.088956      48.088956     -0.08112735    -0.020209997    0.0062547113   0.015556732    0.0023337809  -0.012223687    3035.55        345878.25    
    352000   352            1.0020105      0.024746573    16.641192      1.5030011      21.108883      18.144194     -4.4676903      1250.1413      49.371842      48.096607      48.096607      0.002507424    0.039346204    0.032386092   -0.0070017943   0.01415477    -0.010469291    3070.2901      345826.32    
    356000   356            1.0013799     -0.027760346    16.637267      1.5020552      21.108794      18.139323     -4.4715263      1769.5297      49.381546      48.082176      48.082176      0.0060358826  -0.028167161   -0.06114976     0.045934879   -0.0049960259  -0.0081465694   3104.9559      345766.49    
    360000   360            0.9996137      0.031741642    16.628357      1.4994059      21.103133      18.127763     -4.4747761      2974.1303      49.391249      48.073315      48.073315      0.0028340916   0.027030928    0.065359905   -0.0032572324   0.0066742452   0.020508969    3139.7415      345720.42    
    364000   364            0.99847614    -0.06640155     16.634399      1.4976996      21.103599      18.132098     -4.4692         2550.4287      49.400953      48.084509      48.084509     -0.066349629   -0.073424037   -0.059430983   -0.0109736     -0.0098074701   0.044362867    3174.7414      345697.94    
    368000   368            1.0010264     -0.04744824     16.636676      1.501525       21.108931      18.138201     -4.4722554      1945.3012      49.410656      48.085291      48.085291     -0.10917152    -0.0043660464  -0.028807151    0.02075725     0.01579726    -0.025951781    3209.7657      345677.81    
    372000   372            0.99716759    -0.058277521    16.640616      1.4957368      21.108875      18.136352     -4.46826        2155.323       49.42036       48.092178      48.092178     -0.07178119    -0.095488211   -0.007563162    0.033389473    0.049873719    0.048361277    3244.3937      345615.14    
    376000   376            0.99474611     0.048582534    16.627623      1.4921046      21.107591      18.119727     -4.4799687      3879.7977      49.430064      48.033586      48.033586      0.023895525    0.096324641    0.025527436    0.014491771   -0.028186114   -0.017958189    3279.7415      345628.93    
    380000   380            0.99860394     0.019177661    16.633857      1.4978913      21.105617      18.131748     -4.4717605      2667.6626      49.439767      48.060343      48.060343     -0.014857164    0.042088445    0.030301702   -0.0264354     -0.012860472    0.029111304    3316.264       345764.16    
    384000   384            0.999529      -0.02545694     16.634573      1.4992789      21.10678       18.133852     -4.4722067      2472.3594      49.449471      48.06223       48.06223      -0.018670312   -0.033676317   -0.024024189    0.011581972   -0.001051379    0.019323395    3352.8396      345901.28    
    388000   388            1.0023087      0.020766515    16.643124      1.5034484      21.112075      18.146572     -4.4689508      1188.6931      49.459174      48.061108      48.061108     -0.061341613    0.036447903    0.087193256    0.061381432    0.00049118708 -0.01384075     3389.8189      346076.05    
    392000   392            0.99938106     0.0040102517   16.639086      1.499057       21.107018      18.138143     -4.4679319      2073.0789      49.468878      48.062748      48.062748      0.0062146254  -0.0055213738   0.011337504    0.01733745     0.029446314   -0.0052137802   3426.0984      346175.78    
    396000   396            0.99729145    -0.015616276    16.638039      1.4959226      21.109532      18.133962     -4.4714924      2522.4137      49.478582      48.032425      48.032425     -0.072527552    0.023143685    0.0025350375  -6.4403292e-05 -0.0033874499  -0.021912149    3462.8022      346315.2     
    400000   400            0.99609943    -0.0093581267   16.634237      1.4941346      21.109129      18.128372     -4.4748918      3114.6225      49.488285      48.033083      48.033083      0.019822124   -0.061507156    0.013610652   -0.017642991   -0.044981819   -0.024851173    3499.1305      346413.92    
    404000   404            0.99703925    -0.044482819    16.631617      1.4955443      21.106875      18.127161     -4.4752581      3258.851       49.497989      48.028369      48.028369     -0.049616838    0.0069806179  -0.090812237    0.019106025   -0.020351082    0.037947175    3535.8075      346544.15    
    408000   408            0.99823241     0.040840604    16.640215      1.497334       21.108364      18.137549     -4.4681489      2214.4388      49.507692      48.031511      48.031511      0.091701696   -0.01618995     0.047010065    0.047818988    0.03719374     0.031060036    3573.6027      346779.6     
    412000   412            0.9954638     -0.017617997    16.640423      1.4931811      21.108418      18.133605     -4.4679949      2638.9378      49.517396      48.049053      48.049053      0.022748421   -0.019437424   -0.056164988    0.026475719    0.0094667487  -0.052707236    3609.6357      346840.44    
    416000   416            1.0019856      0.0038534121   16.643054      1.5029637      21.106987      18.146018     -4.4639327      1386.693       49.527099      48.029933      48.029933     -0.0055406511  -0.034872833    0.051973721    0.023420303    0.012002873    0.025909       3645.9489      346926.06    
    420000   420            1.0041681      0.023786917    16.636555      1.5062375      21.107559      18.142792     -4.4710044      1737.4528      49.536803      48.016435      48.016435      0.04697167     0.0025633822   0.021825699    0.022990691   -0.042066953   -0.0037065417   3682.5891      347040.18    
    424000   424            0.99941706    -0.029022702    16.63376       1.499111       21.106251      18.132871     -4.4724905      2774.5518      49.546507      48.02045       48.02045      -0.035972846   -0.041414527   -0.009680733    0.011570592   -0.022950852    0.022366163    3719.509       347177.56    
    428000   428            0.99768896    -0.079635551    16.637644      1.4965188      21.105619      18.134163     -4.4679746      2661.8898      49.55621       48.033147      48.033147     -0.13367201    -0.051250465   -0.05398418     0.0088930642   0.027363823   -0.011460424    3756.3064      347300.36    
    432000   432            1.0008153     -0.021230319    16.633833      1.5012083      21.107481      18.135042     -4.473648       2592.4138      49.565914      48.005814      48.005814     -0.0060816634  -0.05074606    -0.0068632333  -0.019651588   -0.031545839    0.0096177912   3793.6523      347470.45    
    436000   436            1.0008766      0.0048092756   16.638391      1.5013002      21.105164      18.139691     -4.4667726      2135.7963      49.575617      47.990508      47.990508      0.0018900594  -0.00051506663  0.013052834    0.0032207505   0.030226566   -0.038621523    3830.3684      347579.58    
    440000   440            0.99667158     0.003185084    16.634304      1.4949928      21.10617       18.129297     -4.4718654      3221.296       49.585321      47.982564      47.982564      0.025852324   -0.0089849024  -0.0073121691   0.011303885   -0.038917142   -0.035499988    3866.8189      347662.17    
    444000   444            1.0042503     -0.045860827    16.633996      1.5063607      21.10921       18.140357     -4.4752143      2108.0114      49.595025      47.982817      47.982817     -0.033213822   -0.064986681   -0.039381978   -0.030617135    0.010695043    0.0060689114   3904.0384      347811.13    
    448000   448            1.0039105      0.051092183    16.634771      1.5058511      21.107695      18.140622     -4.4729237      2101.5076      49.604728      47.960166      47.960166      0.061260243    0.01855217     0.073464136   -0.018151531   -0.0058640284   0.0062330379   3940.4756      347887.7     
    452000   452            1.0001196      0.043250225    16.632803      1.5001648      21.105953      18.132968     -4.4731505      2906.7103      49.614432      47.958719      47.958719     -0.012954504    0.086541952    0.056163228   -0.0073427682  -0.052900927   -0.016773792    3977.9207      348050.46    
    456000   456            1.0002552     -0.0077715417   16.634657      1.5003682      21.106805      18.135026     -4.4721477      2715.7534      49.624135      47.975179      47.975179     -0.01799605     0.021522349   -0.026840924   -0.027785163   -0.0079493112  -0.037252186    4014.7788      348158.8     
    460000   460            1.0016823      0.00129405     16.634898      1.5025088      21.105302      18.137406     -4.4704047      2492.1538      49.633839      47.975313      47.975313     -0.031673869    0.021266942    0.014289077    0.013381558    0.038731991   -0.019760053    4051.9652      348292.83    
    464000   464            0.99893704     0.0091219639   16.636102      1.4983909      21.106889      18.134493     -4.4707873      2811.3864      49.643543      47.967668      47.967668      0.017056522    0.033047747   -0.022738378    0.0097970019  -0.02476519     0.043893477    4088.8955      348402.09    
    468000   468            0.99680637    -0.0072024042   16.63155       1.495195       21.10824       18.126745     -4.4766896      3625.5435      49.653246      47.946947      47.946947     -0.01167674    -0.038975739    0.029045266    0.0090470804  -0.018565326    0.039321116    4125.8678      348512.4     
    472000   472            1.003172      -0.020533704    16.636228      1.5047433      21.109607      18.140971     -4.4733793      2187.5223      49.66295       47.954227      47.954227      0.0077876164  -0.020734057   -0.048654671   -0.014509569   -0.040807102   -0.018793038    4162.4304      348585.91    
    476000   476            0.99431961    -0.015886937    16.643654      1.4914649      21.109715      18.135119     -4.4660612      2807.8547      49.672653      47.968693      47.968693      0.028337272   -0.050413613   -0.025584468   -0.012336132   -0.053618992   -0.046110915    4199.5048      348700.06    
    480000   480            0.99483152    -0.0093909333   16.636325      1.4922327      21.105392      18.128558     -4.4690663      3499.995       49.682357      47.940675      47.940675      0.049724268   -0.0509895     -0.026907568   -0.017459996    0.042726453   -0.0078608981   4237.0583      348851.13    
    484000   484            1.0003317      0.010874585    16.633527      1.500483       21.107505      18.13401      -4.4739774      2961.4656      49.69206       47.924952      47.924952     -0.0080134353   0.019786215    0.020850975   -0.017112065    0.00675993    -0.001639173    4273.8023      348933       
    488000   488            0.99878338     0.018157587    16.633985      1.4981605      21.105501      18.132145     -4.4715164      3172.9453      49.701764      47.927427      47.927427     -0.0057633275  -0.00032102287  0.060557113   -0.04054954     0.00032375802 -0.032802572    4310.5882      349016.31    
    492000   492            0.99768947     0.03355741     16.632529      1.4965196      21.106854      18.129048     -4.4743256      3510.5423      49.711468      47.90655       47.90655      -0.015154111    0.024829589    0.090996753    0.0069983583  -0.045873157   -0.013267994    4348.4917      349187.42    
    496000   496            0.99834136     0.037723789    16.64175       1.4974974      21.112116      18.139247     -4.4703658      2485.3104      49.721171      47.917083      47.917083      0.016508111    0.084418049    0.012245208    0.021259794   -0.019184678   -0.016602448    4384.9453      349239.67    
    500000   500            1.0003122      0.033300985    16.635083      1.5004536      21.106689      18.135537     -4.4716062      2885.1181      49.730875      47.910791      47.910791      0.067387674    0.040018376   -0.0075030933  -0.030234279    0.00041913143  0.0029001963   4421.5106      349299.34    
    504000   504            0.99802687     0.022308976    16.62172       1.4970257      21.103901      18.118746     -4.4821805      4625.8842      49.740578      47.868329      47.868329      0.0039746463  -0.017181638    0.08013392    -0.0017827346   0.0084424655  -0.036128414    4458.0918      349358.72    
    508000   508            0.99870112     0.032272648    16.622716      1.4980371      21.107773      18.120753     -4.4850568      4440.0698      49.750282      47.854149      47.854149      0.037152299    0.0091714562   0.050494188    0.022270506   -0.032009747    0.01055141     4495.3675      349470.58    
    512000   512            1.0022932      0.023274883    16.631313      1.5034252      21.106723      18.134738     -4.4754106      3026.9406      49.759986      47.89123       47.89123       0.0052037625  -0.0031387684   0.067759656    0.027592487    0.011929642    0.004963332    4532.0728      349536.12    
    516000   516            1.0030937      0.072607198    16.638707      1.5046259      21.109328      18.143333     -4.4706208      2166.7639      49.769689      47.890316      47.890316      0.059443625    0.04002964     0.11834833     0.035638861    0.0008505493  -0.040222173    4569.1278      349626.82    
    520000   520            1.0002261      0.015453756    16.637729      1.5003246      21.10989       18.138053     -4.4721612      2728.1444      49.779393      47.892859      47.892859      0.036939274    0.039916352   -0.030494356    0.028347998   -0.037733007    0.052044246    4605.2622      349645.67    
    524000   524            0.999651      -0.0078929985   16.62516       1.4994619      21.101176      18.124622     -4.4760161      4124.5546      49.789096      47.878667      47.878667      0.014639363   -0.063594687    0.025276328    0.0024754101  -0.01055419    -0.013362111    4641.6588      349683.44    
    528000   528            0.99874761    -0.020221477    16.635987      1.4981068      21.105468      18.134094     -4.4694808      3173.8303      49.7988        47.899544      47.899544     -0.01671255    -0.044001008    4.9125581e-05  0.01408798    -0.0070202955   0.038996788    4678.5558      349757.49    
    532000   532            1.001074       0.0015329183   16.640072      1.5015964      21.105873      18.141669     -4.465801       2417.5937      49.808503      47.921361      47.921361      0.010050503   -0.010954994    0.0055032461  -0.0020101395   0.0010468597  -0.004514584    4715.0133      349797.26    
    536000   536            0.99473783    -0.031099114    16.639878      1.4920922      21.10716       18.13197      -4.4672818      3432.507       49.818207      47.903362      47.903362     -0.070587481    0.021096543   -0.043806404   -0.00099601976 -0.034236268   -0.0040545224   4751.2524      349819.83    
    540000   540            0.99810401    -0.041613294    16.628903      1.4971414      21.103412      18.126044     -4.474509       4059.9696      49.827911      47.872646      47.872646     -0.099731246   -0.02340777    -0.0017008643   0.013007766   -0.008927619   -0.01536959     4788.3747      349906.05    
    544000   544            1.0034248     -0.028773912    16.636542      1.5051226      21.107004      18.141664     -4.4704623      2479.3975      49.837614      47.857247      47.857247     -0.064877625    0.012080149   -0.033524259   -0.0014280061   0.0017470183  -0.0082173759   4825.2582      349973.14    
    548000   548            1.0042319      0.042031755    16.631776      1.5063332      21.105325      18.138109     -4.4735498      2864.1549      49.847318      47.844128      47.844128      0.082002933    0.0091139682   0.034978365    0.053998828    0.028534403    0.017499995    4861.1346      349966.21    
    552000   552            1.0017797      0.059941561    16.6282        1.5026548      21.105078      18.130855     -4.4768788      3627.6803      49.857021      47.823407      47.823407      0.075105435    0.043483379    0.061235868    0.014667575   -0.043236104    0.024471204    4896.8427      349946.83    
    556000   556            1.0048484      0.065032446    16.639694      1.5072579      21.10565       18.146951     -4.4659565      1997.9338      49.866725      47.858005      47.858005      0.085058958    0.030580316    0.079458065   -0.043463623   -0.001251347   -0.031233005    4933.1513      349969.82    
    560000   560            1.0001085      0.0059511519   16.636941      1.5001482      21.107765      18.137089     -4.4708241      3029.0841      49.876429      47.854333      47.854333      0.01820576     0.010588472   -0.010940776    0.0077902196   0.044502819    0.0033148768   4969.5223      349996.36    
    564000   564            0.99600392     0.019873728    16.635761      1.4939913      21.106896      18.129752     -4.4711347      3801.2697      49.886132      47.835013      47.835013     -0.011317417    0.063712691    0.0072259114   0.02463917    -0.0096643216  -0.011404347    5005.198       349973.38    
    568000   568            1.0015391     -0.00044602134  16.641236      1.502294       21.112048      18.14353      -4.4708124      2409.2432      49.895836      47.850871      47.850871     -0.013509763    0.0091316588   0.0030400407   0.015672883    0.01296467     0.016054951    5041.2257      349974.67    
    572000   572            1.0008738      0.010342542    16.639545      1.5012961      21.109231      18.140842     -4.4696854      2705.2473      49.905539      47.851536      47.851536     -0.01442498     0.03663135     0.0088212563  -0.018906542   -0.0054187504   0.029246113    5077.2832      349977.49    
    576000   576            0.99805887    -0.014488698    16.635131      1.4970737      21.108429      18.132205     -4.4732976      3610.3302      49.915243      47.835272      47.835272     -0.021142579    0.017811462   -0.040134977   -0.0069332476   0.0025393265   0.008459143    5114.0931      350031.26    
    580000   580            1.0009889     -0.062874803    16.637471      1.5014687      21.105307      18.13894      -4.4678354      2940.052       49.924946      47.830555      47.830555     -0.1400468      0.010849534   -0.059427144    0.013182685   -0.029624029   -0.010292483    5149.9917      350021.85    
    584000   584            1.0073141     -0.01185244     16.641542      1.5109563      21.105524      18.152499     -4.4639818      1570.4566      49.93465       47.834459      47.834459     -0.040655667    0.0016595414   0.0034388041   0.02797961     0.017156467    0.039112397    5186.2149      350033.98    
    588000   588            1.0007362      0.01510774     16.643336      1.5010897      21.108912      18.144426     -4.4655759      2418.425       49.944354      47.841268      47.841268      0.023339556    0.023960282   -0.0019766194  -0.00079147955  0.042540055    0.0016059704   5222.5928      350055.83    
    592000   592            1.0007612     -0.047551615    16.63297       1.5011272      21.105709      18.134097     -4.4727397      3496.7278      49.954057      47.819335      47.819335     -0.030581152   -0.089238723   -0.022834971   -0.00093935599  0.03472168     0.032232224    5258.554       350049.15    
    596000   596            0.99843889    -0.023813412    16.630741      1.4976437      21.107247      18.128384     -4.4765061      4102.4821      49.963761      47.797691      47.797691     -0.078369775    0.012470112   -0.0055405725   0.031476135   -0.036084835   -0.026124187    5293.7957      349994.51    
    600000   600            1.0010376     -0.070129699    16.629181      1.5015417      21.104975      18.130723     -4.4757946      3882.5725      49.973464      47.809191      47.809191     -0.087399941   -0.069395672   -0.053593483    0.013028109   -0.00021575702  0.0028144959   5329.2834      349956.28    
    604000   604            0.99917115     0.00079356654  16.641695      1.4987421      21.106038      18.140437     -4.4643432      2906.9919      49.983168      47.827538      47.827538      0.046900443   -0.0042998758  -0.040219868   -0.024890513    0.052794202   -0.0016029873   5366.3807      350023.07    
    608000   608            0.99707335     0.032152416    16.633692      1.4955954      21.104592      18.129287     -4.4709002      4070.111       49.992872      47.796916      47.796916      0.052372723    0.052797266   -0.0087127413  -0.055024505    0.044583534    0.0034895831   5402.1388      350001.73    
    612000   612            0.99681546    -0.057841572    16.634292      1.4952086      21.107044      18.1295       -4.4727518      4068.3928      50.002575      47.785621      47.785621     -0.015292649   -0.029866006   -0.12836606     0.043454004    0.045135306   -0.020947952    5438.3535      350009.59    
    616000   616            0.99970826     0.019048908    16.637716      1.4995478      21.106723      18.137264     -4.4690073      3292.7505      50.012279      47.788216      47.788216      0.021869343   -0.014201142    0.049478521   -0.0029687157   0.014327016   -0.016976913    5475.1698      350055.34    
    620000   620            1.0023778     -0.0086163905   16.634148      1.5035521      21.106395      18.1377       -4.4722469      3268.0929      50.021982      47.774293      47.774293     -0.0058059412  -0.060274707    0.040231477   -0.015409659   -0.026874421   -0.015430987    5511.5706      350073.63    
    624000   624            0.99805147    -0.049731143    16.631147      1.4970626      21.107155      18.128209     -4.4760085      4260.8264      50.031686      47.757104      47.757104     -0.067686788   -0.051331157   -0.030175482   -0.0063724999  -0.0025113771  -0.0016740396   5547.5499      350064.62    
    628000   628            0.99921959    -0.0077356288   16.630387      1.4988148      21.104738      18.129202     -4.4743504      4179.1533      50.04139       47.76265       47.76265      -0.0013082624  -0.023258073    0.0013594493  -0.051565241   -0.010897822    0.017406932    5583.0997      350028.35    
    632000   632            1.0043096      0.097757909    16.63574       1.5064497      21.107045      18.14219      -4.4713044      2868.1608      50.051093      47.741222      47.741222      0.050915714    0.090451099    0.15190691    -0.013214793    0.013323481   -0.0079158921   5618.8052      350001.78    
    636000   636            1.0012121      0.050631767    16.633201      1.5018035      21.105956      18.135005     -4.4727542      3624.3289      50.060797      47.749243      47.749243      0.034124382    0.066799501    0.050971416    0.01479395     0.0019943576   0.013504271    5654.8745      349997.61    
    640000   640            1.0013738      0.062781188    16.62762       1.502046       21.110793      18.129666     -4.4831734      4191.5592      50.0705        47.704361      47.704361      0.05964183     0.036712697    0.091989037    0.019090455    0.034405802    0.0036268129   5691.0072      349996.94    
    644000   644            0.99923099     0.0099129715   16.636538      1.4988319      21.106785      18.13537      -4.4702468      3626.8918      50.080204      47.743274      47.743274      0.051123783   -0.014427818   -0.0069570503  -0.020849177   -0.01822926    -0.035752656    5726.7468      349971.81    
    648000   648            1.0018465      0.0083768374   16.640912      1.5027552      21.107462      18.143667     -4.46655        2796.5434      50.089907      47.771774      47.771774     -0.038992853    0.022173348    0.041950018   -0.011638901   -0.036485022   -0.0070314263   5763.2136      349990.71    
    652000   652            0.99592422     0.0095544682   16.639793      1.4938718      21.108083      18.133665     -4.4682901      3841.6752      50.099611      47.758706      47.758706      0.036664851   -0.021897904    0.013896457   -0.0087302286  -0.01002996     0.014993141    5800.4685      350056.49    
    656000   656            0.99744736     0.0061911996   16.634767      1.4961564      21.105881      18.130923     -4.471114       4142.6229      50.109315      47.733352      47.733352      0.015807967   -0.036290671    0.039056303   -0.045090748    0.036008109   -0.027185179    5837.3147      350096.51    
    660000   660            1.0020778      0.006297721    16.641048      1.5031021      21.109733      18.14415      -4.4686847      2807.0966      50.119018      47.745264      47.745264      0.01621996    -0.017712527    0.02038573     0.026204979   -0.025203613    0.020560644    5873.5407      350098.62    
    664000   664            0.99977623     0.039474862    16.637492      1.4996497      21.108501      18.137141     -4.4710095      3545.1663      50.128722      47.710725      47.710725      0.047333971    0.045138075    0.025952541   -0.0019043573  -0.020310146   -0.029353112    5910.2225      350127.28    
    668000   668            1.0016004      0.081972887    16.628549      1.502386       21.104024      18.130935     -4.4754741      4201.3016      50.138425      47.693847      47.693847      0.10325425     0.034339971    0.10832444    -0.016136919   -0.02204071    -0.024019129    5946.4607      350129.03    
    672000   672            0.99784678     0.0037166899   16.627616      1.4967556      21.110229      18.124371     -4.4826133      4893.9113      50.148129      47.678107      47.678107     -0.015951631    0.065811082   -0.038709382   -0.011714951    0.017193976    0.010630814    5983.7337      350190.89    
    676000   676            1.000773      -0.041297201    16.637156      1.5011448      21.107225      18.1383       -4.4700692      3485.9787      50.157833      47.733815      47.733815     -0.053636946   -0.017630911   -0.052623745   -0.03263924    -0.018846433    0.026165875    6021.3581      350272.02    
    680000   680            0.9990054      0.044786707    16.641826      1.4984935      21.108325      18.14032      -4.4664991      3299.2907      50.167536      47.714384      47.714384      0.011395161    0.066859348    0.056105613   -0.028154279   -0.034693299   -0.026432389    6057.794       350283.03    
    684000   684            1.0028642      0.024053073    16.62068       1.5042817      21.101511      18.124962     -4.4808308      4893.0258      50.17724       47.670977      47.670977     -0.012336954    0.007699342    0.076796832    0.00071153496 -0.025421551    0.064686655    6094.0682      350284.19    
    688000   688            1.0040118     -0.035359144    16.629748      1.5060029      21.104581      18.135751     -4.4748337      3807.3026      50.186943      47.690301      47.690301     -0.027615546   -0.017808196   -0.060653691   -0.007681016    0.0075760411   0.038056048    6129.866       350257.69    
    692000   692            1.0027419     -0.005145238    16.63527       1.5040981      21.105747      18.139369     -4.470477       3456.6728      50.196647      47.700835      47.700835      0.031232768   -0.025610898   -0.021057584    0.0073218494  -0.020579638   -0.0083283015   6166.1285      350257.49    
    696000   696            1.0038419      0.0017134179   16.644595      1.5057482      21.110636      18.150343     -4.4660406      2352.2023      50.20635       47.707067      47.707067     -0.0024489506   0.0046052256   0.0029839786  -0.0041803512   0.039127288    0.049964222    6201.5076      350206.98    
    700000   700            0.99838076    -0.050252109    16.642075      1.4975565      21.106576      18.139632     -4.464501       3470.3295      50.216054      47.712539      47.712539     -0.030666748   -0.028446888   -0.091642691    0.0057579387   0.017601919    3.8069648e-05  6237.02        350164.12    
    704000   704            0.99526656     0.0059493913   16.640494      1.4928853      21.107474      18.133379     -4.4669801      4131.0213      50.225758      47.698886      47.698886     -0.011479771    0.0030572301   0.026270715    0.010776031   -0.025726145   -0.032840633    6273.105       350153.32    
    708000   708            1.0006485     -0.028530423    16.640454      1.5009581      21.105184      18.141412     -4.4647295      3327.781       50.235461      47.69993       47.69993      -0.044656878    0.026922236   -0.067856627   -0.015669452    0.075087347    0.0044678172   6309.2202      350143.9     
    712000   712            1.0035221      0.046117602    16.638331      1.5052684      21.102768      18.143599     -4.4644371      3123.6927      50.245165      47.689286      47.689286      0.067437273    0.020082341    0.050833192   -0.014160442    0.047849197    0.027927714    6345.2594      350129.99    
    716000   716            0.99779157    -0.039412027    16.636782      1.4966728      21.108499      18.133454     -4.4717175      4183.3275      50.254868      47.682156      47.682156     -0.019421765   -0.056828829   -0.041985486    0.021379849   -0.015770148   -0.015513151    6381.0073      350099.85    
    720000   720            0.9961799     -0.028590718    16.637165      1.4942553      21.10686       18.131421     -4.4696948      4412.2397      50.264572      47.669941      47.669941      0.0024186629  -0.049360835   -0.038829982    0.023686097   -0.0025162875  -0.024471306    6417.0974      350088.32    
    724000   724            1.0001285     -0.041807031    16.646685      1.5001781      21.110301      18.146863     -4.4636163      2849.7304      50.274276      47.694326      47.694326     -0.037573553   -0.030746379   -0.057101161    0.05551842    -0.021706794    0.0096039631   6453.9542      350118.1     
    728000   728            0.99525823     0.0042307533   16.646562      1.4928728      21.106876      18.139435     -4.460314       3630.9914      50.283979      47.699716      47.699716     -0.015469002    0.0096566411   0.018504621   -0.025732581    0.032627164   -0.021102171    6490.7139      350141.92    
    732000   732            0.99068957    -0.019522486    16.642876      1.4860199      21.108257      18.128896     -4.4653812      4731.472       50.293683      47.682039      47.682039     -0.046860451   -0.0066176184  -0.005089388    0.0040350977   0.081508932   -0.032959632    6526.4699      350111.23    
    736000   736            1.0025908      0.0078438637   16.63538       1.5038715      21.103617      18.139252     -4.4682369      3689.7768      50.303386      47.653857      47.653857      0.003781783    0.035074187   -0.015324379   -0.0034063899  -0.017312365    0.0033571716   6562.497       350094.95    
    740000   740            0.99869033    -0.029560148    16.645085      1.4980209      21.106853      18.143106     -4.461768       3315.135       50.31309       47.671455      47.671455     -0.027199404   -0.045480432   -0.016000607    0.027378061    0.023474706   -0.023506801    6598.6146      350083.26    
    744000   744            0.99735165    -0.064579639    16.634051      1.4960129      21.108358      18.130064     -4.4743066      4672.024       50.322793      47.639689      47.639689     -0.099400757   -0.069311482   -0.025026679    0.021014018    0.02483106    -0.032209843    6634.8448      350077.24    
    748000   748            0.99928133    -0.030616519    16.63283       1.4989074      21.109305      18.131737     -4.476475       4520.6621      50.332497      47.618219      47.618219     -0.032488791   -0.030366342   -0.028994423   -0.016978586   -0.033450158    0.014688635    6669.8473      350006.48    
    752000   752            1.0021907      0.010729851    16.640612      1.5032713      21.106552      18.143883     -4.4659404      3295.9374      50.342201      47.648849      47.648849      0.026486517    0.018335535   -0.012632501   -0.020444177    0.0032741745   0.0020572239   6705.1209      349950.25    
    756000   756            1.0022759     -0.070779337    16.63482       1.5033992      21.105705      18.13822      -4.4708848      3895.9567      50.351904      47.630644      47.630644     -0.048506726   -0.090145617   -0.073685667   -0.0073643885   0.03085288    -0.00071890078  6740.2051      349884.4     
    760000   760            1.0017649      0.0103811      16.633496      1.5026328      21.105332      18.136129     -4.4718361      4130.2862      50.361608      47.630322      47.630322     -0.03419528     0.0028210201   0.062517559    0.014953215   -0.002104619    0.038277952    6775.688       349839.47    
    764000   764            1.0011153     -0.043896622    16.648032      1.5016582      21.109272      18.14969      -4.4612399      2760.7645      50.371311      47.644729      47.644729     -0.042506736   -0.027551249   -0.061631881   -0.004441512   -0.0031350008   0.037198405    6810.5464      349762.56    
    768000   768            0.99920474    -0.021075105    16.639918      1.4987925      21.106608      18.13871      -4.4666903      3906.0504      50.381015      47.6138        47.6138       -0.034733279   -0.022840644   -0.0056513914  -0.014178834    0.010839819    0.029054619    6846.0945      349721.33    
    772000   772            1.0011326     -0.011530716    16.632241      1.5016842      21.106132      18.133925     -4.4738909      4416.5308      50.390719      47.591194      47.591194     -0.017744814    0.02918768    -0.046035014   -0.019370304   -0.0014104019   0.0052085476   6881.6286      349679.44    
    776000   776            1.0040706      0.0450241      16.629654      1.5060912      21.107065      18.135746     -4.4774104      4249.9472      50.400422      47.563083      47.563083     -0.046770323    0.035104835    0.14673779     0.011108218    0.014836781    0.021632716    6916.8492      349621.77    
    780000   780            1.0029289     -0.0075862529   16.64164       1.5043786      21.108903      18.146018     -4.4672634      3216.8911      50.410126      47.598226      47.598226     -0.0097605743   0.0017632465  -0.014761431   -0.0040600844  -0.047575788   -0.0047600442   6952.0279      349562.22    
    784000   784            1.0002703      0.033965781    16.636779      1.5003908      21.105584      18.13717      -4.4688055      4143.9004      50.419829      47.586568      47.586568      0.019376749    0.03030131     0.052219283    0.039380059   -0.0025503505  -0.026026704    6987.7404      349529.62    
    788000   788            0.99826786    -0.0023886894   16.637728      1.4973872      21.109082      18.135115     -4.4713547      4374.5827      50.429533      47.584975      47.584975      0.013494825    0.012063198   -0.032724091    0.031848926    0.0076888436  -0.022050887    7023.4186      349495.29    
    792000   792            1.0023593     -0.0092632659   16.640892      1.5035243      21.106494      18.144416     -4.4656021      3441.354       50.439237      47.609102      47.609102     -0.027357978    0.077250872   -0.077682691    0.030587115   -0.033472571   -0.0095704816   7058.801       349446.3     
    796000   796            0.99895389     0.0098230898   16.645897      1.4984162      21.110377      18.144313     -4.4644796      3472.07        50.44894       47.600928      47.600928     -0.0080617205   0.025073938    0.012457052    0.00062012929  0.024761731   -0.014450428    7093.4083      349359.27    
    800000   800            1.0009299      0.011055757    16.635247      1.5013802      21.107036      18.136627     -4.4717888      4279.9347      50.458644      47.564011      47.564011      0.0063699444  -0.00720424     0.034001566   -0.031819281   -0.023703707   -0.03171325     7128.831       349312.72    
    804000   804            0.99706008    -0.011019444    16.635164      1.4955755      21.105371      18.130739     -4.4702071      4903.4771      50.468347      47.567354      47.567354     -0.051639052   -0.047379194    0.065959915    0.045564847    0.023279168    0.013304976    7163.5502      349231.98    
    808000   808            1.0005753     -0.073777992    16.628463      1.5008483      21.10522       18.129311     -4.4767568      5069.9805      50.478051      47.553609      47.553609     -0.018868664   -0.10239462    -0.10007069    -0.020943319   -0.015077816   -0.0023260043   7198.1536      349146.08    
    812000   812            1.002608       0.0048448195   16.640039      1.5038974      21.109879      18.143936     -4.46984        3591.432       50.487754      47.546194      47.546194     -0.026522382    0.024215429    0.016841412    0.012531031   -0.0051746707   0.023681486    7233.6769      349105.09    
    816000   816            0.99726768     0.076257096    16.640028      1.4958869      21.107174      18.135915     -4.4671461      4433.7344      50.497458      47.54517       47.54517       0.07984409     0.039324045    0.10960315     0.0035422113  -0.0043242337   0.0048632328   7268.4671      349028.94    
    820000   820            1.0010127      0.022893581    16.63739       1.5015044      21.102272      18.138895     -4.4648821      4148.0733      50.507162      47.553868      47.553868     -0.017065412    0.049617472    0.036128684    0.018912391   -0.043662903   -0.0081179342   7303.3216      348956.27    
    824000   824            1.0014813      0.00010188658  16.649723      1.5022073      21.109413      18.15193      -4.4596899      2832.1826      50.516865      47.580711      47.580711      0.046797534   -0.016849277   -0.029642598    0.010294161   -0.033371762   -0.025243409    7337.8426      348868.11    
    828000   828            0.99828379     0.019548003    16.641121      1.4974111      21.106898      18.138532     -4.4657771      4225.237       50.526569      47.554041      47.554041     -0.0070597873   0.041920066    0.023783729    0.00039543517 -0.018354759    0.015027277    7372.7246      348797.55    
    832000   832            0.99752886    -0.00066070085  16.633316      1.4962787      21.106074      18.129595     -4.4727582      5161.4754      50.536272      47.523063      47.523063     -0.014021579    0.031469311   -0.019429834   -0.060933753   -0.0027632248  -0.043142755    7407.5018      348722.39    
    836000   836            1.0034264     -0.0094758666   16.636347      1.505125       21.106079      18.141472     -4.4697318      3964.0233      50.545976      47.529504      47.529504     -0.010054352   -0.033467247    0.015093999   -0.011700279   -0.015212348    0.015431443    7442.0615      348637.44    
    840000   840            1.0008347     -0.085893003    16.638225      1.5012375      21.106632      18.139462     -4.4684075      4190.0509      50.55568       47.526297      47.526297     -0.097273562   -0.051502445   -0.108903       0.0012364928  -0.029048761   -0.048995396    7476.5834      348551.2     
    844000   844            0.99802249     0.011309278    16.632789      1.4970191      21.106262      18.129808     -4.4734731      5199.2989      50.565383      47.513748      47.513748      0.0013000372   0.006998485    0.025629313    0.018481505   -0.0076413467  -0.0061079291   7512.1197      348512.51    
    848000   848            1.0044246      0.051514547    16.634625      1.5066222      21.106704      18.141248     -4.4720785      4046.8351      50.575087      47.523063      47.523063      0.094100608   -0.0037812204   0.064224252    0.021822292   -0.034657305    0.035267737    7547.8413      348482.41    
    852000   852            0.99881796     0.03273159     16.641568      1.4982123      21.109332      18.13978      -4.4677644      4217.5735      50.58479       47.519363      47.519363      0.067898672   -0.0258137      0.056109798   -0.0013727161  -0.022213149    0.055513719    7583.442       348446.7     
    856000   856            0.9986468     -0.019107995    16.632029      1.4979556      21.107434      18.129985     -4.4754044      5241.4448      50.594494      47.512416      47.512416     -0.013762288   -0.015010908   -0.028550789    0.0063321793  -0.050349221    0.017084287    7618.8913      348404.07    
    860000   860            1.0001203     -0.0040223439   16.638867      1.5001658      21.10961       18.139033     -4.4707431      4334.057       50.604197      47.504229      47.504229     -0.010404139    0.029419251   -0.031082144    0.011763921   -0.029779869    0.013498674    7654.5332      348370.27    
    864000   864            1.0058786     -0.012874145    16.630814      1.5088031      21.105127      18.139617     -4.4743136      4293.6258      50.613901      47.492654      47.492654     -0.0064819535  -0.037275113    0.005134632   -0.0066597187   0.013825426   -0.014171257    7690.6697      348358.85    
    868000   868            0.99904685     0.060034816    16.637338      1.4985556      21.109279      18.135894     -4.4719408      4695.4913      50.623605      47.48069       47.48069      -0.0097883971   0.10911887     0.080773976   -0.0048943424   0.0061619378   0.035608863    7725.6308      348294.22    
    872000   872            0.99720182     0.041042005    16.638593      1.4957881      21.109801      18.134381     -4.4712078      4870.419       50.633308      47.487475      47.487475      0.036600724    0.051235252    0.035290038    0.0051665932  -0.028092667    0.0019688887   7760.5461      348227.81    
    876000   876            1.0068911      0.050428455    16.634158      1.5103219      21.108128      18.144479     -4.4739705      3854.771       50.643012      47.456488      47.456488      0.029084657    0.0617031      0.060497607   -0.0051229708  -0.027533416    0.011169595    7795.7108      348172.82    
    880000   880            1.0028772      0.023027215    16.629027      1.5043011      21.105573      18.133328     -4.4765461      5017.5685      50.652715      47.446978      47.446978     -0.018824739    0.029441664    0.058464719   -0.0013070954   0.0058022317   0.029681845    7831.2054      348132.68    
    884000   884            0.99753998     0.022493826    16.634974      1.4962954      21.107567      18.131269     -4.4725931      5248.5119      50.662419      47.448313      47.448313     -0.029308569    0.0040514635   0.092738583    0.019517622   -0.03971061     0.0050663773   7865.2929      348030.31    
    888000   888            0.99839715    -0.01774199     16.63433       1.4975811      21.108206      18.131911     -4.4738756      5202.2152      50.672123      47.465023      47.465023     -0.039294805    0.028111723   -0.042042889   -0.026445167    0.024081623   -0.019098981    7899.5086      347934.21    
    892000   892            0.99597627    -0.029702689    16.62946       1.4939498      21.106293      18.12341      -4.4768338      6093.3577      50.681826      47.461892      47.461892     -0.07338714    -0.0027990408  -0.012921886   -0.02432294    -0.0087430031   0.015506606    7934.3684      347866.9     
    896000   896            0.99829694     0.003884668    16.639511      1.4974308      21.105076      18.136942     -4.4655652      4725.8057      50.69153       47.4812        47.4812       -0.0087626144   0.026336423   -0.0059198043  -0.022800659    0.01731856    -0.026220996    7969.8697      347827.88    
[...]
  39768000   39768          1.0009418     -0.10205593     16.636773      1.5013981      21.106869      18.138171     -4.4700968      126738.53      144.99097      28.079534      28.079534     -0.35179007    -0.019026705    0.064648984    0.026214082   -0.004389146   -0.033799736    336538.06      1963.308     
  39772000   39772          1.0031984     -0.047608845    16.646555      1.5047829      21.105289      18.151338     -4.4587339      125398.42      145.00068      28.088583      28.088583     -0.26366201     0.055402137    0.065433339   -0.061078529    0.0097732002   0.0207399      336575.26      1929.477     
  39776000   39776          0.99813427    -0.1752482      16.651277      1.4971868      21.107847      18.148463     -4.4565704      125702.84      145.01038      28.100667      28.100667     -0.46641588    -0.027492066   -0.031836658    0.037438472   -0.0024154581  -0.0071678144   336611.59      1895.6405    
  39780000   39780          0.99678155    -0.12175992     16.646156      1.4951577      21.108262      18.141314     -4.4621056      126445.35      145.02008      28.092794      28.092794     -0.35914093     0.027681941   -0.033820768   -0.0063637787  -0.032799978   -0.034625455    336649.02      1861.8096    
  39784000   39784          0.99961366    -0.13763256     16.641266      1.4994059      21.108417      18.140672     -4.4671507      126520.78      145.02979      28.083913      28.083913     -0.3786371     -0.024304524   -0.0099560662  -0.01446295     0.01698553    -0.012768015    336685.41      1827.9722    
  39788000   39788          1.0003995     -0.1110567      16.653063      1.5005847      21.105345      18.153648     -4.4522818      125200.65      145.03949      28.107224      28.107224     -0.33138159     0.019520127   -0.021308633   -0.0012756226   4.8357689e-05  0.020494012    336721.27      1794.1316    
  39792000   39792          1.0000104     -0.14705526     16.646535      1.5000009      21.108279      18.146536     -4.4617438      125938.99      145.04919      28.089284      28.089284     -0.40807128    -0.036785014    0.0036905119  -0.03456035    -0.0065272307  -0.0068830557   336757.3       1760.2915    
  39796000   39796          1.0015537     -0.099801332    16.645156      1.5023159      21.106943      18.147472     -4.461787       125852.85      145.0589       28.078968      28.078968     -0.30742711    -0.033952002    0.041975118    0.0013637228   0.037373989    0.01072136     336793.18      1726.4501    
  39800000   39800          1.0028042     -0.086923079    16.645085      1.5041916      21.110347      18.149277     -4.4652617      125677.34      145.0686       28.078077      28.078077     -0.31987843     0.016372345    0.042736853    0.022942216    0.018924904   -0.012203909    336828.52      1692.6056    
  39804000   39804          1.0020925     -0.1142851      16.646239      1.5031241      21.105868      18.149363     -4.4596291      125678.31      145.0783       28.080387      28.080387     -0.38097725     0.04589778    -0.0077758185   0.010846472    0.013999986    0.0093493336   336864.46      1658.7638    
  39808000   39808          1.0000047     -0.10199209     16.640588      1.4999924      21.10698       18.140581     -4.4663922      126587.93      145.08801      28.075642      28.075642     -0.35067832     0.030863288    0.013838761   -0.0042226018   0.045101515   -0.0003443194   336899.86      1624.919     
  39812000   39812          1.0020477     -0.14149501     16.639715      1.5030569      21.107357      18.142772     -4.467642       126372.86      145.09771      28.070901      28.070901     -0.41676177    -0.033106746    0.025383478    0.0033340849  -0.0084348724   0.043206917    336935.82      1591.0764    
  39816000   39816          0.99988812    -0.053037988    16.65492       1.4998175      21.112355      18.154738     -4.4574343      125156.34      145.10741      28.073896      28.073896     -0.31131824     0.09455283     0.057651441    0.030966828   -0.011194699    0.004651419    336971.7       1557.2331    
  39820000   39820          0.99949014    -0.073740751    16.647268      1.4992206      21.110392      18.146489     -4.4631242      126011.62      145.11712      28.073379      28.073379     -0.31954558     0.053585765    0.044737562   -0.024818784   -0.0043784811   0.0015000063   337007.39      1523.3885    
  39824000   39824          0.99931898    -0.17006579     16.637148      1.4989638      21.105267      18.136112     -4.4681194      127084.76      145.12682      28.077369      28.077369     -0.45376901    -0.058541599    0.0021132298   0.030795823   -0.013022513    0.027961346    337043.22      1489.5442    
  39828000   39828          1.0044196     -0.11770281     16.639925      1.5066147      21.107952      18.14654      -4.4680271      126025.56      145.13653      28.076786      28.076786     -0.38823462    -0.014011891    0.049138075    0.048396119    0.026840156   -0.0030728586   337078.44      1455.6968    
  39832000   39832          0.99992229    -0.15730019     16.648149      1.4998688      21.106525      18.148018     -4.4583759      125883.73      145.14623      28.093531      28.093531     -0.32901333    -0.076589025   -0.066298228   -0.021546394   -0.014489808    0.040465794    337114.19      1421.8514    
  39836000   39836          0.99740482    -0.12181709     16.639809      1.4960926      21.106595      18.135901     -4.4667858      127135.39      145.15593      28.065305      28.065305     -0.37984038    -0.0028561994   0.017245309    0.039204512    0.03170193    -0.0053655473   337149.88      1388.0053    
  39840000   39840          1.0000502     -0.17706802     16.641505      1.5000607      21.105326      18.141566     -4.4638209      126564.47      145.16564      28.071662      28.071662     -0.41974488    -0.053410537   -0.058048648   -0.022289775    0.066542325   -0.0048403714   337185.47      1354.1585    
  39844000   39844          0.9991233     -0.188116       16.645846      1.4986703      21.106286      18.144517     -4.4604392      126271.76      145.17534      28.09057       28.09057      -0.45143837    -0.036230481   -0.076679163   -0.02030487    -0.013211391   -0.0021700366   337221.24      1320.312     
  39848000   39848          0.9990172     -0.14612075     16.653199      1.4985112      21.10647       18.15171      -4.4532711      125544.44      145.18504      28.094923      28.094923     -0.37669274    -0.051444361   -0.010225165    0.037339291    0.043274313   -0.0066939925   337257.07      1286.4654    
  39852000   39852          0.9998173     -0.12799744     16.662134      1.4997113      21.107511      18.161845     -4.4453772      124515.45      145.19475      28.113702      28.113702     -0.37606852     0.01758195    -0.025505752   -0.029751843    0.011137646    0.0017772488   337293.17      1252.6194    
  39856000   39856          1.0013837     -0.085275643    16.650977      1.502061       21.106689      18.153038     -4.455712       125427.99      145.20445      28.07681       28.07681      -0.23692743    -0.013484609   -0.0054148938   0.031101747    0.010603975   -0.032003699    337328.49      1218.7701    
  39860000   39860          1.000652      -0.11893365     16.64319       1.5009633      21.107801      18.144153     -4.4646111      126348.4       145.21415      28.06944       28.06944      -0.35126301     0.0065625173  -0.012100452   -0.026770804    0.028719145   -0.024855835    337363.66      1184.92      
  39864000   39864          0.9997726     -0.095587202    16.647212      1.4996443      21.11019       18.146856     -4.462978       126081.25      145.22386      28.060594      28.060594     -0.32609139     0.0027277167   0.036602071   -0.016235737   -0.0011381693   0.043821143    337398.79      1151.0695    
  39868000   39868          1.0041197     -0.13829103     16.648683      1.5061648      21.10671       18.154847     -4.4580276      125271.59      145.23356      28.081821      28.081821     -0.3731432      0.028227915   -0.069957806   -0.0031537759   0.018496126   -0.011247925    337433.98      1117.219     
  39872000   39872          1.0003159     -0.14234829     16.644273      1.5004592      21.108813      18.144732     -4.4645408      126318.33      145.24327      28.073316      28.073316     -0.35351059    -0.028437934   -0.045096357    0.022471658    0.014187119    0.015726136    337469.94      1083.3706    
  39876000   39876          0.99938468    -0.097290619    16.644467      1.4990624      21.105379      18.143529     -4.4609125      126451.25      145.25297      28.074184      28.074184     -0.35256983     0.04029357     0.020404409   -0.017592257    0.0016555536   0.031174626    337505.58      1049.5208    
  39880000   39880          1.0038173     -0.17414715     16.645469      1.5057112      21.103603      18.15118      -4.458134       125676.51      145.26267      28.078962      28.078962     -0.41608142    -0.073849274   -0.032510773   -0.038755563   -0.016588318    0.023197377    337541.82      1015.6725    
  39884000   39884          0.99918662    -0.1105         16.65845       1.4987653      21.11098       18.157215     -4.4525307      125067.98      145.27238      28.084506      28.084506     -0.39619257     0.0096036604   0.055088907   -0.011670672   -0.032459013   -0.027343511    337577.29      981.82141    
  39888000   39888          0.99986838    -0.071263092    16.646388      1.4997879      21.103876      18.146176     -4.4574878      126208.93      145.28208      28.07091       28.07091      -0.29592288     0.028609264    0.053524338   -0.013759258   -0.002742015   -0.021149537    337612.98      947.97067    
  39892000   39892          1.0011789     -0.02991612     16.64708       1.5017537      21.108033      18.148834     -4.4609527      125946.36      145.29178      28.054001      28.054001     -0.29158527     0.075282336    0.12655458     0.023279528   -0.0097672486   0.0087802556   337648.88      914.12009    
  39896000   39896          1.0075671     -0.14025445     16.650646      1.5113359      21.110957      18.161982     -4.4603103      124608.29      145.30149      28.07158       28.07158      -0.39476581    -0.012022895   -0.013974649    0.014165139   -0.0093119963  -0.028848058    337684.64      880.26876    
  39900000   39900          1.0017166     -0.088001843    16.648969      1.5025602      21.108737      18.151529     -4.4597675      125689.3       145.31119      28.063107      28.063107     -0.34210301    -0.0036819443   0.081779423   -0.038613852    0.028352862   -0.0035550566   337720.33      846.41687    
  39904000   39904          0.99982137    -0.08769711     16.651049      1.4997174      21.109515      18.150767     -4.4584661      125777.36      145.32089      28.05506       28.05506      -0.33351486     0.013243483    0.057180044   -0.0080363592   0.047688575   -0.0064520204   337756.48      812.5657     
  39908000   39908          1.0012779     -0.13548936     16.646709      1.5019021      21.110305      18.148611     -4.4635959      126008.12      145.3306       28.059843      28.059843     -0.36053395    -0.013480496   -0.032453635    0.0073855602  -0.038039361    0.020991614    337792.37      778.7135     
  39912000   39912          1.0004349     -0.10530577     16.642297      1.5006378      21.107077      18.142934     -4.46478        126599.7       145.3403       28.042626      28.042626     -0.34763778     0.0092225355   0.022497933   -0.011352452   -0.0028276909  -0.023049642    337828.67      744.86176    
  39916000   39916          1.0039988     -0.11291075     16.649504      1.5059835      21.106525      18.155488     -4.4570203      125322.78      145.35         28.060997      28.060997     -0.39167339     0.041473434    0.011467693   -0.0015726492  -0.0043256986   0.022218906    337864.24      711.00802    
  39920000   39920          0.99819372    -0.095879991    16.649368      1.497276       21.108109      18.146644     -4.4587405      126238.67      145.35971      28.062086      28.062086     -0.33121389     0.010875914    0.032698006    0.013667814    0.016882438    0.044468621    337899.89      677.15409    
  39924000   39924          1.0011226     -0.05849738     16.642066      1.5016692      21.109053      18.143735     -4.466987       126546.67      145.36941      28.042579      28.042579     -0.30834438     0.055982648    0.07686959    -0.046473303    0.014800473   -0.0057771009   337935.85      643.30038    
  39928000   39928          1.0026321     -0.078468285    16.651736      1.5039335      21.107919      18.15567      -4.4561826      125333.28      145.37912      28.062112      28.062112     -0.32823165     0.050601481    0.042225314   -0.020532902   -0.028701201    0.045696242    337971.57      609.44583    
  39932000   39932          1.0015346     -0.063295211    16.649064      1.5022872      21.109178      18.151351     -4.4601135      125785.74      145.38882      28.062543      28.062543     -0.33514589     0.097921406    0.047338847    0.0097063168   0.043809276    0.039540693    338007.43      575.59113    
  39936000   39936          0.9988186     -0.16366217     16.639947      1.4982133      21.105414      18.13816      -4.4654666      127146.97      145.39852      28.055928      28.055928     -0.40890291    -0.019362721   -0.062720879    0.019678419    0.020949739    0.035740904    338042.76      541.73519    
  39940000   39940          0.99732827    -0.15825339     16.643399      1.4959778      21.106951      18.139377     -4.463552       127032.26      145.40823      28.052629      28.052629     -0.42769439    -0.029058798   -0.018006988    0.016610627    0.035190994    0.025836163    338078.29      507.87925    
  39944000   39944          1.0021515     -0.15981414     16.64332       1.5032126      21.106052      18.146533     -4.4627321      126308.52      145.41793      28.059958      28.059958     -0.38028151    -0.042861031   -0.056299872    0.023625038   -0.031580045   -0.030294456    338114.06      474.02332    
  39948000   39948          1.0022822     -0.10665414     16.651987      1.5034086      21.110131      18.155395     -4.4581438      125409.87      145.42763      28.058736      28.058736     -0.33808204     0.025668873   -0.0075492405  -0.00052143365 -0.020668232    0.0022559718   338149.52      440.16659    
  39952000   39952          0.99893113    -0.099693355    16.646843      1.4983821      21.109567      18.145225     -4.4627237      126461.85      145.43734      28.046981      28.046981     -0.34881218     0.074068823   -0.024336706   -0.012175518   -0.055055624    0.053963337    338185.28      406.30991    
  39956000   39956          1.0003638     -0.11329753     16.647281      1.500531       21.105661      18.147812     -4.45838        126206.44      145.44704      28.054734      28.054734     -0.35112556     6.7523765e-05  0.011165441    0.025227757   -0.0044763101   0.010226723    338220.76      372.45254    
  39960000   39960          0.99968989    -0.13362646     16.649834      1.4995202      21.110395      18.149355     -4.4605607      126058.12      145.45674      28.049971      28.049971     -0.37300964     0.010167858   -0.03803759    -0.020363519   -0.010528594   -0.002503043    338256.32      338.59491    
  39964000   39964          0.99976426    -0.090326637    16.646317      1.4996318      21.111298      18.145949     -4.4649807      126416.86      145.46645      28.037669      28.037669     -0.28043309     0.036061821   -0.026608642   -0.029568953   -0.0093551868  -0.020437502    338291.87      304.73695    
  39968000   39968          1.0005273     -0.090861779    16.646049      1.5007763      21.107605      18.146825     -4.4615569      126336.66      145.47615      28.034592      28.034592     -0.34756152     0.038811304    0.036164884    0.050485507    0.019953878    0.0050254387   338327.26      270.87851    
  39972000   39972          1.0026163     -0.10361536     16.64538       1.5039097      21.106531      18.14929      -4.461151       126093.6       145.48585      28.049258      28.049258     -0.36068343     0.025827914    0.024009425    0.040366483   -0.034974479   -0.00078483215  338363.3       237.02023    
  39976000   39976          1.0035058     -0.15843981     16.646657      1.505244       21.105301      18.151901     -4.4586438      125835.89      145.49556      28.052797      28.052797     -0.43598248    -0.034527785   -0.0048091761   0.021616438    0.012669537    0.002665861    338399.03      203.16131    
  39980000   39980          0.99658496    -0.15782734     16.643947      1.4948629      21.105389      18.13881      -4.4614425      127187.4       145.50526      28.043137      28.043137     -0.43213709    -0.012005351   -0.029339577   -0.041393724    0.018946385   -0.035422705    338434.97      169.30214    
  39984000   39984          0.99783786    -0.14130962     16.647133      1.4967422      21.107473      18.143875     -4.4603397      126678.12      145.51497      28.051549      28.051549     -0.36814545    -0.019447816   -0.036335598   -0.035300938   -0.043849275    0.0084176229   338471.46      135.44276    
  39988000   39988          0.99921961    -0.18009025     16.648526      1.4988148      21.11127       18.14734      -4.4627449      126332.54      145.52467      28.052711      28.052711     -0.37252037    -0.079599266   -0.08815111     0.04455618     0.029273476    0.011377906    338507.16      101.58262    
  39992000   39992          0.99453424    -0.096970354    16.647316      1.4917868      21.107854      18.139102     -4.4605387      127186.76      145.53437      28.044287      28.044287     -0.30894451     0.0097314748   0.0083019736   0.043180676   -0.021981865   -0.038110267    338542.98      67.722141    
  39996000   39996          0.99684028    -0.12079441     16.644284      1.4952458      21.107326      18.13953      -4.4630422      127152.17      145.54408      28.037668      28.037668     -0.35121471    -0.00073665814 -0.010431865    0.0095105478   0.032643364   -0.0024591599   338578.71      33.861258    
  40000000   40000          1.0021156     -0.11157434     16.647919      1.5031587      21.109541      18.151077     -4.4616221      125978.46      145.55378      28.04717       28.04717      -0.36918187     0.039161959   -0.004703093   -0.0035765551  -0.029356039    0.012763348    338614.74      0            
Loop time of 338615 on 18 procs for 40000000 steps with 102500 atoms

Performance: 10206.289 tau/day, 118.128 timesteps/s
98.1% CPU use with 18 MPI tasks x 1 OpenMP threads

MPI task timing breakdown:
Section |  min time  |  avg time  |  max time  |%varavg| %total
---------------------------------------------------------------
Pair    | 2.228e+05  | 2.2734e+05 | 2.3409e+05 | 591.0 | 67.14
Bond    | 12207      | 12625      | 13488      | 256.6 |  3.73
Neigh   | 12741      | 12767      | 12794      |  13.9 |  3.77
Comm    | 30151      | 35679      | 37694      | 875.2 | 10.54
Output  | 936.09     | 936.12     | 936.16     |   0.0 |  0.28
Modify  | 44790      | 46905      | 49785      | 929.4 | 13.85
Other   |            | 2363       |            |       |  0.70

Nlocal:        5694.44 ave        5735 max        5654 min
Histogram: 1 1 1 2 4 4 2 1 0 2
Nghost:        9987.33 ave       10032 max        9956 min
Histogram: 5 0 3 1 3 0 1 2 2 1
Neighs:         224579 ave      228200 max      220552 min
Histogram: 2 1 1 2 1 3 4 0 1 3

Total # of neighbors = 4042426
Ave neighs/atom = 39.438302
Ave special neighs/atom = 6.627161
Neighbor list builds = 1331736
Dangerous builds = 0

# GENERATION RESTART
write_restart ./out.deform.restart
System init for write_restart ...
Generated 0 of 36 mixed pair_coeff terms from geometric mixing rule
write_data    ./out.deform.data pair ij
System init for write_data ...
Generated 0 of 36 mixed pair_coeff terms from geometric mixing rule
Total wall time: 94:03:36
