LAMMPS (15 Sep 2022)
OMP_NUM_THREADS environment is not set. Defaulting to 1 thread. (src/comm.cpp:98)
  using 1 OpenMP thread(s) per MPI task
package gpu 0 binsize 12.0
# LAMMPS Script for deform
# Generated 12/17/2022

# INIT PARAMS & READ CONF
include   "/work_bgfs/h/harshad/simulation_9/neat_polymer/config_3/system.init"
# UNITS
units		lj
dimension	3
atom_style	bond

# INPUT FILE
pair_style	lj/cut 2.5
bond_style	fene
read_data /work_bgfs/h/harshad/simulation_9/neat_polymer/config_3/quiescent/thermal_replicates/4.npt.data
Reading data file ...
  orthogonal box = (-24.253822 -24.253822 -24.253822) to (24.253822 24.253822 24.253822)
  2 by 3 by 3 MPI processor grid
  reading atoms ...
  102500 atoms
  reading velocities ...
  102500 velocities
  scanning bonds ...
  2 = max bonds/atom
  reading bonds ...
  104500 bonds
Finding 1-2 1-3 1-4 neighbors ...
  special bond factors lj:    0        0        0       
  special bond factors coul:  0        0        0       
     4 = max # of 1-2 neighbors
     4 = max # of 1-3 neighbors
     8 = max # of 1-4 neighbors
    12 = max # of special neighbors
  special bonds CPU = 0.004 seconds
  read_data CPU = 1.266 seconds
include   "/work_bgfs/h/harshad/simulation_9/neat_polymer/config_3/system.settings"
# ATOM TYPE
mass  1  1.0 #backbone
mass  2  1.0 #endmer
mass  3  1.0 #crosslinker
mass  4  1.0 #outer shell
mass  5  1.0 #inner shell 2
mass  6  1.0 #inner-most shell
mass  7  1.0 #center bead
mass  8  1.0 #endmer post crosslinking
mass  9  1.0 #crosslinker post crosslinking

# BOND
bond_coeff * 30.0 1.50 1.0 1.0
special_bonds lj 0.0 1.0 1.0
Finding 1-2 1-3 1-4 neighbors ...
  special bond factors lj:    0        1        1       
  special bond factors coul:  0        0        0       
     4 = max # of 1-2 neighbors
     4 = max # of 1-3 neighbors
     8 = max # of 1-4 neighbors
    12 = max # of special neighbors
  special bonds CPU = 0.003 seconds

# PAIR
pair_coeff  1*9 1*9 1.0 1.0 2.5

pair_modify  shift yes
neigh_modify delay 1 check yes

# MAKE GROUPS
group polymer type 1 2 3 8 9
102500 atoms in group polymer
#group ins     type 1
#group strand  type 1 2 8
#group ends    type 2 8
#group xlinks  type 3 9
#group filler  type 4 5 6 7

# INPUTS FROM SBATCH
variable Temp          equal 1.0
variable gamma_total   equal 2.0
variable gamma_rate    equal 0.00005
variable dt            equal 0.001
variable Nfreq         equal 4000
variable Nrepeat_2     equal 100
variable Nevery_1      equal 1
variable Nrepeat_1     equal 1

variable Run           equal ${gamma_total}/${gamma_rate}/${dt}
variable Run           equal 2/${gamma_rate}/${dt}
variable Run           equal 2/5e-05/${dt}
variable Run           equal 2/5e-05/0.001

# RUN OPTIONS
run_style verlet
timestep  ${dt}
timestep  0.001

# RESTART
restart  ${Nfreq} cycle.1.restart cycle.2.restart
restart  4000 cycle.1.restart cycle.2.restart

## SAVE RESTARTS EVERY 10% EXTENSION
#variable RestFreq      equal 0.1/${gamma_rate}/${dt}
#restart  ${RestFreq} deform.*.restart
#
# COMPUTE ke/atom, pe/atom, pxx/atom, position and time-avg
compute     ke_atm          all     ke/atom
compute     p_atm           all     stress/atom NULL
compute     pe_atm          all     pe/atom
compute     ebond_atm       all     pe/atom bond
compute     posit_atm       all     property/atom x y z
fix         avg_ke_atm_1    all     ave/atom ${Nevery_1} ${Nrepeat_1} ${Nfreq} c_ke_atm
fix         avg_ke_atm_1    all     ave/atom 1 ${Nrepeat_1} ${Nfreq} c_ke_atm
fix         avg_ke_atm_1    all     ave/atom 1 1 ${Nfreq} c_ke_atm
fix         avg_ke_atm_1    all     ave/atom 1 1 4000 c_ke_atm
fix         avg_pxx_atm_1   all     ave/atom ${Nevery_1} ${Nrepeat_1} ${Nfreq} c_p_atm[*]
fix         avg_pxx_atm_1   all     ave/atom 1 ${Nrepeat_1} ${Nfreq} c_p_atm[*]
fix         avg_pxx_atm_1   all     ave/atom 1 1 ${Nfreq} c_p_atm[*]
fix         avg_pxx_atm_1   all     ave/atom 1 1 4000 c_p_atm[*]
fix         avg_pe_atm_1    all     ave/atom ${Nevery_1} ${Nrepeat_1} ${Nfreq} c_pe_atm
fix         avg_pe_atm_1    all     ave/atom 1 ${Nrepeat_1} ${Nfreq} c_pe_atm
fix         avg_pe_atm_1    all     ave/atom 1 1 ${Nfreq} c_pe_atm
fix         avg_pe_atm_1    all     ave/atom 1 1 4000 c_pe_atm
#fix         avg_posit_atm_1 all     ave/atom ${Nevery_1} ${Nrepeat_1} ${Nfreq} c_posit_atm[1] c_posit_atm[2] c_posit_atm[3]
dump        dump_1 all custom ${Nfreq} ${out_dir}traj.${Nevery_1}_${Nrepeat_1}_${Nfreq}.xyz mol type x y z f_avg_ke_atm_1 f_avg_pe_atm_1 f_avg_pxx_atm_1[*]
dump        dump_1 all custom 4000 ${out_dir}traj.${Nevery_1}_${Nrepeat_1}_${Nfreq}.xyz mol type x y z f_avg_ke_atm_1 f_avg_pe_atm_1 f_avg_pxx_atm_1[*]
dump        dump_1 all custom 4000 /shares_bgfs/dssimmons_data/harshad/deform/neat_polymer/config_3/4_deform/work_bgfs--h--harshad--simulation_9--neat_polymer--config_3--4_deform--traj.${Nevery_1}_${Nrepeat_1}_${Nfreq}.xyz mol type x y z f_avg_ke_atm_1 f_avg_pe_atm_1 f_avg_pxx_atm_1[*]
dump        dump_1 all custom 4000 /shares_bgfs/dssimmons_data/harshad/deform/neat_polymer/config_3/4_deform/work_bgfs--h--harshad--simulation_9--neat_polymer--config_3--4_deform--traj.1_${Nrepeat_1}_${Nfreq}.xyz mol type x y z f_avg_ke_atm_1 f_avg_pe_atm_1 f_avg_pxx_atm_1[*]
dump        dump_1 all custom 4000 /shares_bgfs/dssimmons_data/harshad/deform/neat_polymer/config_3/4_deform/work_bgfs--h--harshad--simulation_9--neat_polymer--config_3--4_deform--traj.1_1_${Nfreq}.xyz mol type x y z f_avg_ke_atm_1 f_avg_pe_atm_1 f_avg_pxx_atm_1[*]
dump        dump_1 all custom 4000 /shares_bgfs/dssimmons_data/harshad/deform/neat_polymer/config_3/4_deform/work_bgfs--h--harshad--simulation_9--neat_polymer--config_3--4_deform--traj.1_1_4000.xyz mol type x y z f_avg_ke_atm_1 f_avg_pe_atm_1 f_avg_pxx_atm_1[*]
dump_modify dump_1 append yes sort id

# COMPUTE a separate pe and ke for each group, AVG & SAVE
compute   pe_polymer    all reduce  sum c_pe_atm
compute   ke_polymer    all reduce  sum c_ke_atm
compute   ebond_polymer all reduce  sum c_ebond_atm
compute   pxx_polymer   all reduce  sum c_p_atm[1] c_p_atm[2] c_p_atm[3]
compute   pxy_polymer   all reduce  sum c_p_atm[4] c_p_atm[5] c_p_atm[6]
fix 		  avgEnergy     all     ave/time ${Nevery_1} ${Nrepeat_2} ${Nfreq} c_pe_polymer c_ke_polymer c_ebond_polymer c_pxy_polymer[1] c_pxy_polymer[2] c_pxy_polymer[3] file energy.avg.csv
fix 		  avgEnergy     all     ave/time 1 ${Nrepeat_2} ${Nfreq} c_pe_polymer c_ke_polymer c_ebond_polymer c_pxy_polymer[1] c_pxy_polymer[2] c_pxy_polymer[3] file energy.avg.csv
fix 		  avgEnergy     all     ave/time 1 100 ${Nfreq} c_pe_polymer c_ke_polymer c_ebond_polymer c_pxy_polymer[1] c_pxy_polymer[2] c_pxy_polymer[3] file energy.avg.csv
fix 		  avgEnergy     all     ave/time 1 100 4000 c_pe_polymer c_ke_polymer c_ebond_polymer c_pxy_polymer[1] c_pxy_polymer[2] c_pxy_polymer[3] file energy.avg.csv
fix       avgPxx_all    all     ave/time ${Nevery_1} ${Nfreq} ${Nfreq}     c_pxx_polymer[1] c_pxx_polymer[2] c_pxx_polymer[3]                                           file pxx.all.avg.csv
fix       avgPxx_all    all     ave/time 1 ${Nfreq} ${Nfreq}     c_pxx_polymer[1] c_pxx_polymer[2] c_pxx_polymer[3]                                           file pxx.all.avg.csv
fix       avgPxx_all    all     ave/time 1 4000 ${Nfreq}     c_pxx_polymer[1] c_pxx_polymer[2] c_pxx_polymer[3]                                           file pxx.all.avg.csv
fix       avgPxx_all    all     ave/time 1 4000 4000     c_pxx_polymer[1] c_pxx_polymer[2] c_pxx_polymer[3]                                           file pxx.all.avg.csv

# TIME-AVG Ly
variable Ly equal ly
fix       avgLy         all     ave/time ${Nevery_1} ${Nfreq} ${Nfreq}     v_Ly  file Ly.avg.csv
fix       avgLy         all     ave/time 1 ${Nfreq} ${Nfreq}     v_Ly  file Ly.avg.csv
fix       avgLy         all     ave/time 1 4000 ${Nfreq}     v_Ly  file Ly.avg.csv
fix       avgLy         all     ave/time 1 4000 4000     v_Ly  file Ly.avg.csv

# SIMULATION FIXES
fix  npt        all npt temp ${Temp} ${Temp} 2.0 y 0 0 5 z 0 0 5 couple yz
fix  npt        all npt temp 1 ${Temp} 2.0 y 0 0 5 z 0 0 5 couple yz
fix  npt        all npt temp 1 1 2.0 y 0 0 5 z 0 0 5 couple yz
fix  mom        all momentum 10000 linear 1 1 1
fix  deform     all deform 1 x erate ${gamma_rate} remap x units box
fix  deform     all deform 1 x erate 5e-05 remap x units box

# THERMO
variable  thermo_frq equal ${Nfreq}
variable  thermo_frq equal 4000
thermo    ${thermo_frq}
thermo    4000
thermo_style  custom step time temp press pe ke ebond etotal epair ecouple lx ly lz pxx pyy pzz pxy pxz pyz cpu cpuremain

# deform
run ${Run}
run 40000000

CITE-CITE-CITE-CITE-CITE-CITE-CITE-CITE-CITE-CITE-CITE-CITE-CITE

Your simulation uses code contributions which should be cited:

- GPU package (short-range, long-range and three-body potentials): doi:10.1016/j.cpc.2010.12.021, doi:10.1016/j.cpc.2011.10.012, doi:10.1016/j.cpc.2013.08.002, doi:10.1016/j.commatsci.2014.10.068, doi:10.1016/j.cpc.2016.10.020, doi:10.3233/APC200086

@Article{Brown11,
 author = {W. M. Brown and P. Wang and S. J. Plimpton and A. N. Tharrington},
 title = {Implementing Molecular Dynamics on Hybrid High Performance Computers---Short Range Forces},
 journal = {Comput.\ Phys.\ Commun.},
 year =    2011,
 volume =  182,
 pages =   {898--911},
 doi =     {10.1016/j.cpc.2010.12.021}
}

@Article{Brown12,
 author = {W. M. Brown and A. Kohlmeyer and S. J. Plimpton and A. N. Tharrington},
 title = {Implementing Molecular Dynamics on Hybrid High Performance Computers - Particle-Particle Particle-Mesh},
 journal = {Comput.\ Phys.\ Commun.},
 year =    2012,
 volume =  183,
 doi =     {10.1016/j.cpc.2011.10.012},
 pages =   {449--459}
}

@Article{Brown13,
 author = {W. M. Brown and Y. Masako},
 title = {Implementing Molecular Dynamics on Hybrid High Performance Computers---Three-Body Potentials},
 journal = {Comput.\ Phys.\ Commun.},
 year =    2013,
 volume =  184,
 pages =   {2785--2793},
 doi =     {10.1016/j.cpc.2013.08.002},
}

@Article{Trung15,
 author = {T. D. Nguyen and S. J. Plimpton},
 title = {Accelerating Dissipative Particle Dynamics Simulations for Soft Matter Systems},
 journal = {Comput.\ Mater.\ Sci.},
 year =    2015,
 doi =     {10.1016/j.commatsci.2014.10.068},
 volume =  100,
 pages =   {173--180}
}

@Article{Trung17,
 author = {T. D. Nguyen},
 title = {{GPU}-Accelerated {T}ersoff Potentials for Massively Parallel
    Molecular Dynamics Simulations},
 journal = {Comput.\ Phys.\ Commun.},
 year =    2017,
 doi =     {10.1016/j.cpc.2016.10.020},
 volume =  212,
 pages =   {113--122}
}

@inproceedings{Nikolskiy19,
 author = {V. Nikolskiy and V. Stegailov},
 title = {{GPU} Acceleration of Four-Site Water Models in {LAMMPS}},
 booktitle = {Proceedings of the International Conference on Parallel
    Computing (ParCo 2019), Prague, Czech Republic},
 doi =     {10.3233/APC200086},
 year =    2019
}

CITE-CITE-CITE-CITE-CITE-CITE-CITE-CITE-CITE-CITE-CITE-CITE-CITE

Generated 0 of 36 mixed pair_coeff terms from geometric mixing rule
WARNING: Inconsistent image flags (src/domain.cpp:819)
Per MPI rank memory allocation (min/avg/max) = 11.63 | 11.63 | 11.64 Mbytes
   Step          Time           Temp          Press          PotEng         KinEng         E_bond         TotEng         E_pair        Ecouple           Lx             Ly             Lz            Pxx            Pyy            Pzz            Pxy            Pxz            Pyz            CPU          CPULeft    
         0   0              1.002526      -0.027346363    16.628456      1.5037744      21.102992      18.132231     -4.4745357      0              48.507643      48.507643      48.507643     -0.075483764   -0.014683608    0.0081282838   0.022095362    0.022098596    0.01514469     0              0            
      4000   4              1.0034461      0.018019148    16.636392      1.5051545      21.109423      18.141547     -4.4730306     -933.9264       48.517345      48.496959      48.496959      0.040168952   -0.028147913    0.042036407    0.031999278    0.05709146     0.0067779222   7.384428       73836.906    
      8000   8              0.99622416    -0.089867039    16.640889      1.4943217      21.106706      18.13521      -4.4658176     -264.00798      48.527046      48.531946      48.531946     -0.11572314    -0.078795927   -0.075082046   -0.0020167165   0.0061365033   0.007666361    14.997414      74972.081    
     12000   12             0.99764626     0.0071299042   16.635393      1.4964548      21.104753      18.131848     -4.4693602      100.90077      48.536748      48.511952      48.511952     -0.022493234    0.033298577    0.010584369    0.045777777   -0.007146126   -0.014263212    22.591359      75281.942    
     16000   16             1.0047578     -0.0089200447   16.634188      1.5071219      21.111295      18.14131      -4.4771067     -848.78297      48.546449      48.478208      48.478208      0.018723687   -0.031481667   -0.014002155   -0.0019641627   0.016901581    0.022867903    29.918841      74767.187    
     20000   20             0.99948326    -0.034312739    16.627064      1.4992103      21.10582       18.126274     -4.4787557      713.09756      48.556151      48.4633        48.4633       -0.095952528    0.019881397   -0.026867086    0.019802347    0.032200733   -0.011851293    37.405039      74772.675    
     24000   24             0.99723532     0.0028991548   16.635639      1.4958384      21.1075        18.131477     -4.4718614      200.46256      48.565852      48.470324      48.470324      0.043771754    0.015278595   -0.050352885    0.033079374   -0.001697325    0.016093949    44.793034      74610.265    
     28000   28             0.99981387    -0.030106387    16.641179      1.4997062      21.107208      18.140885     -4.4660285     -743.44575      48.575554      48.512058      48.512058     -0.010986293   -0.031851125   -0.047481745    0.0028303741  -0.024983009   -0.0035455195   52.236526      74571.374    
     32000   32             0.99688614    -0.045293613    16.637143      1.4953146      21.107341      18.132458     -4.470198       140.84064      48.585256      48.508421      48.508421     -0.063741901    0.0016358812  -0.073774819    0.0030937907   0.011884423   -0.0093691478   59.687063      74549.143    
     36000   36             0.99952603     0.061484122    16.633163      1.4992744      21.108462      18.132438     -4.475299       163.14889      48.594957      48.441609      48.441609      0.069961117    0.056453163    0.058038085    0.0008171586   0.0032816458  -0.048789506    67.082497      74469.026    
     40000   40             0.99902973     0.0069275871   16.635877      1.49853        21.10474       18.134407     -4.4688639     -17.855197      48.604659      48.466284      48.466284      0.018035076    0.0098995224  -0.0071518369   0.013685267   -0.022473204   -0.036266629    74.490194      74415.705    
     44000   44             1.0013071     -0.0013875966   16.635906      1.5019459      21.111367      18.137852     -4.4754614     -350.30445      48.61436       48.453493      48.453493      0.00036553818  0.020740619   -0.025268947    0.0052295518   0.0011729103  -0.0052669769   81.873418      74348.508    
     48000   48             1.0021427     -0.027448195    16.634412      1.5031994      21.108106      18.137612     -4.473694      -305.17951      48.624062      48.463938      48.463938     -0.053332215   -0.046448878    0.017436509    0.015050222    0.030785544   -0.027260379    89.357944      74375.597    
     52000   52             0.99803203    -0.0025905902   16.631032      1.4970334      21.10465       18.128066     -4.4736173      693.56379      48.633763      48.454407      48.454407      0.017975522   -0.020181086   -0.0055662071   0.00060982306 -0.00049901229 -0.018519132    96.908536      74448.12     
     56000   56             0.99453705    -0.028234991    16.634541      1.491791       21.107787      18.126332     -4.4732457      891.66149      48.643465      48.441893      48.441893     -0.030526302   -0.057425003    0.0032463333  -0.015892614    0.027009877    0.0079215753   104.31438      74405.957    
     60000   60             0.9977966     -0.015584649    16.62925       1.4966803      21.105562      18.12593      -4.4763117      952.99466      48.653166      48.442412      48.442412     -0.011885512   -0.034793162   -7.5273485e-05  0.022768618    0.019290839    0.043642736    111.84719      74452.947    
     64000   64             0.99892208    -0.0079660118   16.641061      1.4983685      21.111417      18.139429     -4.4703561     -409.70045      48.662868      48.450512      48.450512     -0.035114733    0.040894429   -0.029677731    0.011918958    0.024301883   -0.00082038252  119.40029      74505.783    
     68000   68             1.003729       0.016416446    16.630133      1.5055788      21.105207      18.135712     -4.4750738     -9.3116934      48.672569      48.418413      48.418413      0.033351923    0.053825695   -0.037928281    0.052448847    0.048407031    0.00046849554  126.78814      74454.474    
     72000   72             0.99751605     0.053753366    16.631412      1.4962595      21.109505      18.127671     -4.4780929      835.46128      48.682271      48.3895        48.3895        0.068238542   -0.0021938855   0.095215443    0.00080989355  0.017515998    0.047733878    134.30829      74481.409    
     76000   76             1.0047785      0.029317584    16.629367      1.5071531      21.104546      18.13652      -4.4751795     -51.203445      48.691972      48.4098        48.4098        0.024927881   -0.0086306687   0.07165554     0.0018571977   0.025539485   -0.014040772    141.70377      74439.226    
     80000   80             1.0028479      0.054805142    16.63871       1.5042571      21.112444      18.142968     -4.4737334     -691.32802      48.701674      48.403051      48.403051      0.098380637   -0.0064156319   0.072450421   -0.004359256   -0.022594484   -0.011356498    149.21204      74456.808    
     84000   84             0.99832052     0.026773949    16.635991      1.4974662      21.106206      18.133457     -4.4702152      304.19224      48.711375      48.409981      48.409981     -0.049946798    0.056614912    0.073653734    0.0035408085   0.0014107365  -0.001707033    156.63305      74430.534    
     88000   88             1.0006515      0.00023892592  16.628994      1.5009627      21.106379      18.129956     -4.4773851      683.33582      48.721077      48.384885      48.384885     -0.0047673622  -0.019728401    0.025212541    0.002282286    0.008970506   -0.0052190233   164.17046      74458.766    
     92000   92             1.0003999      0.029165663    16.644787      1.5005852      21.108307      18.145372     -4.46352       -876.14758      48.730778      48.42476       48.42476       0.03983574     0.017282528    0.03037872    -0.0037706312  -0.048799878    0.044846019    171.84005      74541.225    
     96000   96             1.0023343      0.054942057    16.637323      1.5034868      21.106142      18.140809     -4.4688192     -387.86279      48.74048       48.392446      48.392446      0.063580175    0.048780482    0.052465514    0.00095609449  0.00039705303 -0.0082837725   179.31787      74536.461    
    100000   100            1.0021369     -0.028492896    16.633129      1.5031906      21.106493      18.13632      -4.4733633      92.953362      48.750182      48.392092      48.392092     -0.027564839    0.025545274   -0.083459123   -0.043125658    0.01234611     0.032708858    186.99091      74609.375    
    104000   104            0.99909726     0.019407022    16.63193       1.4986313      21.105263      18.130561     -4.4733335      703.87067      48.759883      48.391354      48.391354     -0.018936035    0.020355575    0.056801527    0.0029538707   0.00048943415 -0.030662995    194.40636      74577.272    
    108000   108            0.99328482    -0.020020507    16.626621      1.4899127      21.105831      18.116534     -4.4792102      2162.2884      48.769585      48.375424      48.375424     -0.017784676   -0.0051643234  -0.037112521    0.044286805   -0.0073737114   0.0067621452   201.88521      74570.415    
    112000   112            0.99464081    -0.008604082    16.638662      1.4919467      21.107395      18.130609     -4.4687326      740.59876      48.779286      48.412141      48.412141     -0.047221319   -0.0067737427   0.028182816    0.0022494934  -0.031417141   -0.017721403    209.4243       74584.971    
    116000   116            1.0019066      0.023150113    16.635402      1.5028452      21.105407      18.138247     -4.470005      -21.95761       48.788988      48.372275      48.372275     -0.025068449    0.0502045      0.044314289   -0.0097978478   0.010356786   -0.012331402    216.88194      74569.993    
    120000   120            0.99490021    -0.053532281    16.634747      1.4923358      21.106851      18.127082     -4.4721045      1142.9784      48.798689      48.374773      48.374773     -0.078737662   -0.041101927   -0.040757255   -0.016442569    0.016723142    0.014220541    224.41283      74579.864    
    124000   124            0.99927522     0.0044481849   16.633829      1.4988982      21.10779       18.132727     -4.4739607      584.9957       48.808391      48.36219       48.36219      -0.0074786309  -0.0046762284   0.025499414   -0.029583935   -0.013078534   -0.011714114    231.97877      74599.881    
    128000   128            1.0026834      0.020410153    16.63282       1.5040105      21.106724      18.136831     -4.4739038      184.57496      48.818092      48.352319      48.352319      0.015565218    0.059340884   -0.013675644   -0.012465072    0.0022243339  -0.007163475    239.40623      74575.042    
    132000   132            0.99856972    -0.0052665008   16.638969      1.49784        21.106465      18.136809     -4.4674959      207.52557      48.827794      48.384321      48.384321     -0.0084730357   0.028694658   -0.036021125    0.013029716   -0.017738947    0.015269438    246.83502      74551.656    
    136000   136            1.0014978     -0.033499095    16.628221      1.502232       21.103779      18.130453     -4.4755577      878.71364      48.837495      48.365812      48.365812     -0.010636859   -0.057570868   -0.03228956    -0.008304309    0.016329709    0.010001572    254.19707      74509.648    
    140000   140            1.0012605     -0.0001450941   16.63044       1.5018761      21.105234      18.132316     -4.4747937      708.30572      48.847197      48.329023      48.329023      0.036069466   -0.018326616   -0.018178132    0.013009241   -0.058813152    0.024927877    261.53428      74462.546    
    144000   144            0.99863842     0.025359743    16.638545      1.497943       21.106374      18.136488     -4.4678287      300.86763      48.856898      48.356526      48.356526      0.080977328    0.00427643    -0.0091745288   0.044315156    0.0028056652   0.015507784    268.94482      74437.95     
    148000   148            1.0008189      0.0089189197   16.627219      1.5012137      21.106275      18.128433     -4.479056       1147.0994      48.8666        48.305936      48.305936     -0.018647249    0.034441908    0.0109621     -0.032301248   -0.0074079291   0.013033168    276.46341      74443.376    
    152000   152            0.99444125    -0.0045466592   16.631491      1.4916473      21.104721      18.123139     -4.4732294      1709.9502      48.876301      48.326647      48.326647     -0.01508631    -0.032602561    0.034048893    0.030995973    0.0032559955  -0.03775192     283.78025      74395.234    
    156000   156            1.0013061      0.044968674    16.635869      1.5019445      21.10684       18.137814     -4.4709707      225.92136      48.886003      48.328588      48.328588     -0.023469797    0.051228462    0.10714736    -0.012979167   -0.012972219   -0.026617359    291.51472      74455.85     
    160000   160            1.0055179      0.022887642    16.633908      1.5082621      21.109392      18.14217      -4.4754841     -199.9505       48.895704      48.288633      48.288633      0.038771908    0.013323312    0.016567705   -0.010820303   -0.010351103    0.03141307     298.98018      74446.065    
    164000   164            0.99991819     0.029118786    16.632837      1.4998627      21.105843      18.132699     -4.4730061      791.09102      48.905406      48.314088      48.314088      0.017670945    0.061384869    0.0083005454   0.01622969    -0.048943787    0.009209724    306.28392      74397.111    
    168000   168            1.0059324     -0.010058228    16.638305      1.5088839      21.10695       18.147189     -4.4686444     -673.55136      48.915108      48.334727      48.334727     -0.016661235   -0.021604877    0.0080914285  -0.044772216   -0.023782982   -0.0065343131   313.89359      74422.676    
    172000   172            1.000906      -0.0093983392   16.63859       1.5013444      21.104025      18.139934     -4.4654349      90.567205      48.924809      48.342991      48.342991     -0.0075093206  -0.034479775    0.013794078   -0.013784343    0.009650944   -0.035130352    321.53745      74454.613    
    176000   176            0.99561169    -0.030975716    16.639732      1.493403       21.109567      18.133135     -4.4698345      808.08746      48.934511      48.325009      48.325009     -0.003292621   -0.057181424   -0.032453102   -0.030123046    0.014417933   -0.010638921    329.17882      74484.189    
    180000   180            0.99901933     0.044886086    16.638368      1.4985144      21.107921      18.136882     -4.4695536      444.26525      48.944212      48.309704      48.309704      0.020277449    0.052308961    0.062071848   -0.00067080165  0.0011806349  -0.0090270717   336.68509      74482.225    
    184000   184            0.99952521     0.010361029    16.646153      1.4992732      21.105989      18.145427     -4.4598353     -410.95456      48.953914      48.347204      48.347204      0.0089801413   0.024755996   -0.0026530506   0.015225853   -0.014529432   -0.030697474    344.24612      74491.867    
    188000   188            0.99625152     0.0071041525   16.636927      1.4943627      21.108668      18.13129      -4.4717403      1058.5334      48.963615      48.293253      48.293253      0.0063495522   0.01897655    -0.0040136452   0.0055470673   0.0017185051  -0.0096926278   351.6609       74469.807    
    192000   192            1.0016322      0.014164365    16.632896      1.5024337      21.106695      18.135329     -4.4737993      664.87217      48.973317      48.268332      48.268332      0.023698257   -0.0070145725   0.025809411    0.021144616    0.032466781    0.011321941    359.28423      74491.597    
    196000   196            1.0015803      0.059024214    16.645536      1.5023559      21.110925      18.147892     -4.4653884     -602.06977      48.983018      48.289021      48.289021      0.053656256    0.045864855    0.077551529    0.026989789    0.019742223   -0.0027687674   366.73543      74477.23     
    200000   200            0.99727836    -0.0025224675   16.638573      1.495903       21.110232      18.134476     -4.4716589      793.56776      48.99272       48.280885      48.280885      0.022402037    0.024863491   -0.054832931   -0.0067294687   0.044720041    0.017704287    374.19578      74464.96     
    204000   204            1.0038298     -0.01275813     16.630263      1.50573        21.103502      18.135993     -4.473239       658.22258      49.002421      48.262951      48.262951     -0.013186008   -0.029538886    0.0044505035   0.015378993    0.0084672708  -0.021834798    381.6199       74445.812    
    208000   208            1.0026699     -0.017606985    16.638668      1.5039903      21.109556      18.142658     -4.4708883     -4.5682925      49.012123      48.262564      48.262564     -0.053772837    0.013799327   -0.012847445   -0.0058091685  -0.056192894    0.0011399193   389.14796      74446.999    
    212000   212            1.0005287     -0.027735542    16.632039      1.5007784      21.105731      18.132817     -4.473692       1024.4213      49.021824      48.240646      48.240646      0.036576999   -0.041937848   -0.077845777    0.0089443268   0.014525281    0.01789051     396.4818       74411.405    
    216000   216            0.99925428    -0.011081605    16.630785      1.4988668      21.103428      18.129652     -4.4726422      1368.8079      49.031526      48.25258       48.25258      -0.042429576    0.04729069    -0.03810593     0.027052222   -0.013178405    0.032495925    404.11525      74432.042    
    220000   220            1.0035052     -0.0060792765   16.637097      1.5052431      21.10328       18.14234      -4.4661832      88.312583      49.041227      48.266527      48.266527      0.059544996   -0.02344972    -0.054333106    0.013451889   -0.043283745    0.031970512    411.70907      74444.485    
    224000   224            1.0032463      0.019689599    16.629257      1.5048548      21.107152      18.134112     -4.4778949      951.85939      49.050929      48.228751      48.228751      0.056449453    0.038621663   -0.036002318   -0.025191489   -0.010677716   -0.044215458    419.06626      74414.195    
    228000   228            0.99987132     0.052767266    16.6301        1.4997923      21.107714      18.129892     -4.4776139      1404.8011      49.06063       48.213188      48.213188      0.063283292    0.034614004    0.060404503    0.020599396    0.030487389    0.022434265    426.60568      74416.497    
    232000   232            1.0004233     -0.095487818    16.637846      1.5006203      21.108311      18.138466     -4.4704654      546.32002      49.070332      48.250113      48.250113     -0.067007192   -0.096757231   -0.12269903     0.018285514   -0.016336267    0.017248691    434.33051      74450.241    
    236000   236            1.0023838      0.0019037146   16.63838       1.503561       21.107338      18.141941     -4.4689577      210.74092      49.080034      48.257573      48.257573      0.0086913814  -0.035973815    0.032993577   -0.010866395   -0.039101551   -0.028631951    441.73813      74429.131    
    240000   240            0.99842961    -0.0091875571   16.632402      1.4976298      21.107275      18.130032     -4.474873       1451.7411      49.089735      48.198002      48.198002      0.012425657   -0.059550384    0.019562056    0.056036524   -0.022782951   -0.0217107      449.22585      74421.75     
    244000   244            1.0018177      0.0098811907   16.633247      1.5027119      21.107653      18.135958     -4.4744063      864.32483      49.099437      48.210036      48.210036      0.0045766827  -0.013703839    0.038770729   -0.021301114    0.001442886    0.013889106    456.72273      74415.856    
    248000   248            0.99917727    -0.068903235    16.635229      1.4987513      21.106532      18.13398      -4.471303       1087.0449      49.109138      48.232479      48.232479     -0.012665913   -0.057691542   -0.13635225    -0.039816255    0.013152208   -0.013125593    464.26407      74417.038    
    252000   252            1.0006786     -0.0060100746   16.631529      1.5010033      21.10808       18.132532     -4.4765517      1255.9483      49.11884       48.209145      48.209145      0.00033982241 -0.005671346   -0.0126987     -0.010372588    0.011989881    0.0078390487   471.78353      74414.491    
    256000   256            0.99861578    -0.034897091    16.63674       1.4979091      21.106093      18.134649     -4.4693528      1059.4229      49.128541      48.218929      48.218929     -0.066957405    0.036599161   -0.07433303    -0.042729628    0.0061811061  -0.0073229546   479.21165      74397.609    
    260000   260            1.0023369     -0.010910967    16.638828      1.5034906      21.108416      18.142319     -4.469588       293.95144      49.138243      48.233464      48.233464     -0.035972553   -0.0034500166   0.0066896698   0.027704412    0.0089103202   0.00086695548  486.56755      74369.978    
    264000   264            0.99522632     0.018412351    16.639522      1.4928249      21.103965      18.132347     -4.4644431      1336.7735      49.147944      48.229857      48.229857      0.035847745   -0.022213548    0.041602855    0.0075621678   0.010762652    0.014786947    493.87371      74335.476    
    268000   268            0.99843694    -0.0039275197   16.636635      1.4976408      21.104284      18.134276     -4.4676483      1159.1223      49.157646      48.20428       48.20428      -0.015567551    0.016339807   -0.012554815    0.0066183026  -0.033699486    0.018668857    501.45722      74342.904    
    272000   272            0.99806621    -0.02998247     16.638326      1.4970847      21.107331      18.135411     -4.469005       1063.0356      49.167347      48.201599      48.201599     -0.060072028   -0.029589175   -0.00028620821  0.056469415   -0.0085947714   0.0016235635   509.03555      74349.133    
    276000   276            0.99769871    -0.017516169    16.635398      1.4965335      21.110257      18.131931     -4.4748596      1439.7308      49.177049      48.176593      48.176593     -0.0084035575   0.014355125   -0.058500075   -0.016062013    0.033281588   -0.013759918    516.66877      74362.863    
    280000   280            0.99764708     0.016104622    16.636475      1.496456       21.107055      18.132931     -4.4705796      1357.4282      49.18675       48.177797      48.177797      0.020638541    0.042924827   -0.015249501   -0.016347267    0.0071740094  -0.015798054    524.0417       74339.059    
    284000   284            1.0035674     -0.031302658    16.635871      1.5053364      21.103975      18.141208     -4.4681031      529.09683      49.196452      48.184539      48.184539     -0.033836564   -0.039394595   -0.020676815   -0.010606301   -0.024598059    0.0055583554   531.61821      74344.186    
    288000   288            0.99586335    -0.032220192    16.632792      1.4937805      21.104379      18.126572     -4.4715872      2049.5452      49.206153      48.166043      48.166043     -0.027712355   -0.03257093    -0.036377289    0.021072445   -0.05518461    -0.022772179    538.99998      74322.109    
    292000   292            0.99792622     0.0019526843   16.629742      1.4968747      21.111517      18.126617     -4.4817749      2065.1604      49.215855      48.144023      48.144023     -0.0015381794  -0.005533373    0.012929605   -0.035992447   -0.036406819    0.0020692589   546.38616      74301.033    
    296000   296            1.0026394     -0.031410959    16.628472      1.5039444      21.103685      18.132416     -4.4752137      1491.0269      49.225556      48.163486      48.163486     -0.06491218    -0.084437505    0.055116808   -0.045759206    0.0013708157  -0.0021994705   553.94134      74302.997    
    300000   300            0.9987492      0.03297132     16.639404      1.4981092      21.108192      18.137513     -4.4687887      989.37685      49.235258      48.169743      48.169743     -0.018677785    0.092979075    0.024612672   -0.0086129169  -0.0026492103  -0.0023884911   561.51042      74306.546    
    304000   304            1.000953       0.018417101    16.640127      1.5014148      21.10721       18.141542     -4.4670828      596.58074      49.24496       48.18173       48.18173       0.065292358    0.017510815   -0.027551869    0.0093237198  -0.013073225    0.022787686    569.12167      74315.309    
    308000   308            1.0051661     -0.033739873    16.644391      1.5077345      21.11033       18.152125     -4.4659391     -467.47994      49.254661      48.191917      48.191917     -0.046250427   -0.055253695    0.00028450204 -0.037812833    0.029621838    0.031419373    576.52895      74297.361    
    312000   312            1.0021159     -0.041437819    16.634688      1.5031592      21.108885      18.137847     -4.4741974      1016.5915      49.264363      48.144481      48.144481     -0.029518649   -0.045973165   -0.048821643    0.012659035    0.00071034986 -0.017064335    584.15961      74308.099    
    316000   316            0.99594105     0.041837298    16.635601      1.493897       21.105547      18.129498     -4.4699452      1892.6558      49.274064      48.12167       48.12167       0.0091752808   0.085824345    0.030512267   -0.042851426   -0.038558838   -0.021489146    591.65281      74301.108    
    320000   320            1.0006837      0.027122287    16.63565       1.5010109      21.106912      18.136661     -4.4712616      1178.5832      49.283766      48.117285      48.117285      0.067495671    0.019747639   -0.0058764484   0.011281353    0.019868671   -0.019005232    599.04832      74281.992    
    324000   324            1.0043409      0.035795318    16.635188      1.5064966      21.105697      18.141684     -4.4705094      684.1465       49.293467      48.129571      48.129571      0.094068297    0.0098154481   0.0035022103  -0.03820476     0.0031429936   0.079226757    606.492        74269.064    
    328000   328            0.99926681     0.015448394    16.632005      1.4988856      21.101999      18.130891     -4.4699934      1810.1908      49.303169      48.127244      48.127244     -0.037104892    0.038073947    0.045376126    0.030279842    0.015734287   -0.021096182    613.89703      74251.595    
    332000   332            1.0007579     -0.0069654699   16.633258      1.5011222      21.106585      18.13438      -4.4733273      1473.1339      49.31287       48.102996      48.102996      0.015222032   -0.034881334   -0.0012371078  -0.002640173   -0.036980104    0.0118696      621.3673       74242.164    
    336000   336            1.005635      -0.002863914    16.628912      1.5084377      21.106113      18.13735      -4.4772006      1189.1546      49.322572      48.095775      48.095775     -0.034830785   -0.004129002    0.030368045   -0.0037037317  -0.022217352    0.032524956    628.84541      74233.703    
    340000   340            1.0012865      0.010746317    16.628385      1.5019151      21.105936      18.130301     -4.4775508      1932.362       49.332273      48.088031      48.088031      0.011329892    0.0028480665   0.018060992    0.0013791426   0.0061259874  -0.020059049    636.22144      74213.36     
    344000   344            0.99986019     0.0095449527   16.627811      1.4997757      21.107857      18.127587     -4.4800459      2230.5498      49.341975      48.065987      48.065987     -0.047845874    0.033245303    0.043235429   -0.01362478    -0.0077997821   0.0060752627   643.61724      74195.597    
    348000   348            1.0043047     -0.009661703    16.633682      1.5064423      21.107615      18.140125     -4.4739328      965.63734      49.351676      48.079739      48.079739     -0.032572065    0.034054807   -0.030467851   -0.061538297    0.01413616    -0.010056505    650.98562      74174.948    
    352000   352            0.99820068     0.0024024613   16.63901       1.4972864      21.109009      18.136296     -4.4699992      1378.2842      49.361378      48.092808      48.092808      0.045071003   -0.02092478    -0.016938839   -0.015511337   -0.034421735    0.021949063    658.41129      74161.054    
    356000   356            1.0001499     -0.019076452    16.624495      1.5002102      21.10113       18.124706     -4.4766347      2586.2294      49.371079      48.079255      48.079255     -0.018481917    0.010639831   -0.049387268   -0.022813276   -0.046402368    0.017948536    665.78614      74141.645    
    360000   360            0.99913056    -0.028724479    16.630303      1.4986812      21.105306      18.128984     -4.4750036      2168.141       49.380781      48.087392      48.087392      0.00038484898 -0.04949593    -0.037062356    0.0069474181  -0.0013712707   0.0097710616   673.24275      74131.507    
    364000   364            0.99666928    -0.017409638    16.639599      1.4949893      21.103787      18.134588     -4.4641875      1614.0412      49.390482      48.118968      48.118968     -0.073876139    0.026271636   -0.0046244113  -0.036805922    0.040468923   -0.025030183    680.791        74131.407    
    368000   368            0.99396101    -0.06567611     16.641386      1.490927       21.108271      18.132313     -4.4668849      1867.856       49.400184      48.11639       48.11639      -0.099964119    0.0010702296  -0.098134441    0.01221311     0.020987861    0.011571765    688.35193      74132.51     
    372000   372            0.99894967    -0.0081396681   16.643271      1.4984099      21.106966      18.141681     -4.4636951      928.02069      49.409885      48.094932      48.094932     -0.020796164    0.046844107   -0.050466947    0.0029257576  -0.052707225   -0.0048494712   696.00779      74143.54     
    376000   376            1.0004621     -0.0092695466   16.643505      1.5006785      21.112258      18.144183     -4.4687534      692.03161      49.419587      48.08976       48.08976       0.035406459   -0.041277619   -0.021937481   -0.016854563   -0.021040362    0.02879849     703.48622      74135.474    
    380000   380            0.99695146     0.005210398    16.636343      1.4954126      21.10346       18.131756     -4.4671161      1985.9533      49.429289      48.059755      48.059755      0.036554628   -0.011668771   -0.009254663   -0.010930244    0.019535237    0.02746293     711.0662       74138.008    
    384000   384            1.0002499     -0.03427208     16.632388      1.5003602      21.103716      18.132748     -4.4713279      1904.2057      49.43899       48.055248      48.055248     -0.049872245   -0.016393334   -0.03655066     0.016732524   -0.041882635    0.023152835    718.72098      74148.047    
    388000   388            1.0023677     -0.030841354    16.636883      1.5035369      21.106124      18.14042      -4.4692413      1138.257       49.448692      48.053989      48.053989     -0.011902033   -0.070347132   -0.010274898   -0.01323109     0.0045075934  -0.037034025    726.05469      74124.944    
    392000   392            0.99548372    -0.035628279    16.638965      1.493211       21.106809      18.132176     -4.4678446      2003.4094      49.458393      48.057161      48.057161     -0.039549021   -0.055098764   -0.012237052    0.0033072693  -0.01693038     0.030783527    733.5752       74121.038    
    396000   396            0.9950961     -0.053184573    16.636262      1.4926296      21.104511      18.128892     -4.4682488      2360.2362      49.468095      48.071726      48.071726     -0.067567523   -0.071342417   -0.020643779   -0.0081632137  -0.0020819073  -0.017267302    741.00985      74108.47     
    400000   400            0.99855028    -0.013332754    16.639624      1.4978108      21.106689      18.137434     -4.4670649      1505.0752      49.477796      48.048626      48.048626     -0.02532356     0.0202054     -0.034880102   -0.003046975    0.0043445729   0.019772138    748.45271      74096.818    
    404000   404            0.99689103     0.0055142453   16.635102      1.495322       21.10755       18.130424     -4.472448       2243.7303      49.487498      48.019946      48.019946      0.023516296   -0.00094017628 -0.0060333836   0.03908304    -0.0020040093   0.006902766    755.86326      74082.084    
    408000   408            0.99963138    -0.0027304027   16.627054      1.4994324      21.103497      18.126487     -4.4764421      2667.473       49.497199      48.027337      48.027337     -0.019069926    0.013037817   -0.0021590984  -0.017603519   -0.008429674   -0.026820275    763.50719      74090.139    
    412000   412            0.9982278     -0.014131147    16.637466      1.4973271      21.105065      18.134793     -4.4675995      1836.4666      49.506901      48.039615      48.039615     -0.02298942    -0.033102191    0.013698169    0.032086338   -0.017606888    0.01516906     771.03652      74086.878    
    416000   416            1.0003438     -0.009584335    16.637485      1.5005011      21.105862      18.137986     -4.4683777      1529.8319      49.516602      48.039209      48.039209      0.0052565341  -0.01396747    -0.020042069    0.015856554    0.018053978    0.015601855    778.66253      74092.735    
    420000   420            0.99834133     0.021515116    16.628551      1.4974974      21.105325      18.126048     -4.476774       2773.2334      49.526304      47.991863      47.991863      0.055254873    0.022734264   -0.013443788    0.0024456061   0.037490927    0.0068207314   786.28921      74098.397    
    424000   424            0.9987376      0.027613542    16.636051      1.4980918      21.104929      18.134143     -4.4688781      1963.6085      49.536005      47.993323      47.993323      0.056385866    0.0095701273   0.016884633   -0.010769625   -0.03324935     0.016728626    793.69824      74083.494    
    428000   428            1.001306      -0.051145521    16.635669      1.5019444      21.107434      18.137613     -4.4717653      1628.5891      49.545707      48.00897       48.00897      -0.04504704    -0.066673988   -0.041715534    0.0003582591   0.035337846   -0.012859259    801.2135       74078.553    
    432000   432            0.99726096    -0.066518774    16.629877      1.4958768      21.104         18.125754     -4.4741233      2864.2665      49.555408      48.011831      48.011831     -0.10052811    -0.040447225   -0.058580985    0.025734129    0.027697105    0.02526558     808.66854      74068.048    
    436000   436            0.99479493    -0.032895001    16.632757      1.4921778      21.104925      18.124934     -4.4721686      2968.2273      49.56511       48.020914      48.020914     -0.015276586   -0.026201225   -0.057207192   -0.012854817   -0.0037040238  -0.017265071    816.15377      74060.339    
    440000   440            0.99875764    -0.022218303    16.633258      1.4981218      21.106593      18.13138      -4.4733355      2328.1271      49.574811      47.994152      47.994152     -0.081513079    0.053220717   -0.038362546   -0.0054285416  -0.035424188    0.0022445619   823.63459      74052.237    
    444000   444            1.0024474     -0.020843009    16.637077      1.5036565      21.104533      18.140733     -4.4674568      1389.6209      49.584513      48.004858      48.004858      0.043003415   -0.027875261   -0.077657182    0.041513207    0.01062427    -0.012793726    831.21825      74053.309    
    448000   448            1.0057236      0.024274881    16.641612      1.5085707      21.106332      18.150183     -4.4647198      441.56632      49.594215      48.00424       48.00424       0.012573005   -0.024127104    0.084378744    0.0020115283   0.10299792    -0.053650586    838.73971      74048.734    
    452000   452            1.0031817      0.0098372689   16.63717       1.5047578      21.106301      18.141928     -4.4691307      1308.2102      49.603916      47.989752      47.989752      0.012483151    0.0054675655   0.01156109    -0.021059382   -0.036034376   -0.040428551    846.08358      74028.569    
    456000   456            0.99986653    -0.0027471112   16.632142      1.4997852      21.103871      18.131927     -4.4717289      2353.3735      49.613618      47.969061      47.969061     -0.0094630624   0.0047793867  -0.003557658   -0.021258769   -0.020299439   -0.048363863    853.50097      74015.006    
    460000   460            0.99991212     0.021229596    16.639195      1.4998535      21.109219      18.139048     -4.4700245      1643.7753      49.623319      47.96301       47.96301       0.082234624   -0.059573695    0.041027859   -0.032425835   -0.0011311739  -0.012564784    860.77974      73989.633    
    464000   464            1.0018867     -0.007012513    16.642593      1.5028153      21.106191      18.145409     -4.4635976      1012.2791      49.633021      48.001678      48.001678     -0.059258123   -0.0027641638   0.040984747   -0.032417483    0.018248257   -0.031272922    868.18428      73975.288    
    468000   468            0.99366364     0.0022354559   16.638892      1.4904809      21.112211      18.129372     -4.4733195      2676.2929      49.642722      47.966809      47.966809     -0.021508653    0.027126422    0.0010885982  -0.019706047   -0.024370878    0.00097053726  875.62764      73964.342    
    472000   472            0.99894298    -0.060422896    16.634801      1.4983999      21.107686      18.133201     -4.472885       2303.8196      49.652424      47.972184      47.972184     -0.065973971   -0.065646517   -0.049648199   -0.0090212025   0.026526013    0.00090397238  883.05193      73951.858    
    476000   476            1.0017955     -0.047810632    16.642088      1.5026786      21.1078        18.144767     -4.4657117      1138.524       49.662125      47.988003      47.988003     -0.09574252    -0.028833718   -0.018855657   -0.047199714   -0.0034885822  -0.019072343    890.48234      73939.967    
    480000   480            0.99302205    -0.0091828365   16.642898      1.4895185      21.107166      18.132417     -4.4642675      2424.7191      49.671827      47.97737       47.97737      -0.00082648994 -0.014619233   -0.012102787    0.0048531712  -0.036636211   -0.056796801    898.14547      73947.31     
    484000   484            0.99697243     0.00039165492  16.634527      1.495444       21.107694      18.129971     -4.4731665      2695.4607      49.681528      47.938785      47.938785      0.035849965   -0.011445205   -0.023229795    0.013021115   -0.060075245    0.021761611    905.60507      73937.789    
    488000   488            1.0015517     -0.066256512    16.640186      1.5023128      21.105928      18.142498     -4.4657423      1431.7912      49.69123       47.955962      47.955962     -0.077140616   -0.041472859   -0.080156061   -0.0060135544   0.051468956    0.006248623    913.05874      73927.822    
    492000   492            1.0012274      0.0030594706   16.63966       1.5018264      21.105864      18.141486     -4.4662036      1555.8977      49.700931      47.954818      47.954818     -0.011817769    0.023708221   -0.0027120409   0.025516733   -0.0018327422   0.003334912    921.47029      73994.813    
    496000   496            0.99777336    -0.068012182    16.632936      1.4966454      21.105145      18.129581     -4.4722095      2796.5374      49.710633      47.936877      47.936877     -0.074332255   -0.097362112   -0.03234218    -0.0038980774   0.028823233   -0.0018719301   929.23581      74009.136    
    500000   500            1.0012906      0.0017785699   16.636032      1.5019213      21.105574      18.137954     -4.4695418      1958.5006      49.720334      47.930331      47.930331     -0.044377881   -0.014202256    0.063915847   -0.069698638    0.0044996066  -0.003028458    936.65104      73995.432    
    504000   504            1.0067452     -0.032702812    16.637658      1.5101031      21.106371      18.147761     -4.4687128      973.64921      49.730036      47.936089      47.936089     -0.03591426    -0.01187853    -0.050315645   -0.025450441   -0.016389377    0.015552734    944.07307      73982.361    
    508000   508            1.0003167      0.0060900759   16.634398      1.5004603      21.109621      18.134859     -4.475223       2316.7648      49.739737      47.91246       47.91246       0.01529808    -0.020871851    0.023843999    0.0021105397   0.024575123    0.015817314    951.44329      73965.351    
    512000   512            1.000379       0.028531015    16.63169       1.5005538      21.104729      18.132244     -4.4730393      2605.0323      49.749439      47.894207      47.894207      0.072497084   -0.023495576    0.036591537    0.0085140024  -0.023391922   -0.024587558    958.93521      73957.878    
    516000   516            1.0019271     -0.0082186706   16.638558      1.502876       21.109008      18.141434     -4.4704503      1683.1117      49.759141      47.905624      47.905624     -0.040743114    0.035593578   -0.019506476    0.0041502679   0.036531697   -0.01670748     966.45048      73952.191    
    520000   520            1.0029424      0.05103917     16.639095      1.5043989      21.106371      18.143494     -4.4672766      1492.1341      49.768842      47.895668      47.895668      0.070387835    0.10493325    -0.022203573    0.068005412    0.056046095    0.0088142429   973.69648      73926.033    
    524000   524            0.99749875     0.031972468    16.634494      1.4962335      21.108506      18.130728     -4.4740119      2820.5977      49.778544      47.875936      47.875936      0.045952428    0.029545975    0.020419       0.021309938    0.037249043    0.0062309458   981.20327      73919.81     
    528000   528            0.99928603    -0.026423774    16.635967      1.4989144      21.106881      18.134881     -4.4709142      2414.9596      49.788245      47.887028      47.887028     -0.096137766   -0.017496877    0.03436332    -0.011558611    0.035764336   -0.016612195    988.67396      73910.869    
    532000   532            1.0038354     -0.082292097    16.639642      1.5057384      21.108876      18.14538      -4.4692339      1359.2189      49.797947      47.911878      47.911878     -0.09714268    -0.041161445   -0.10857217     0.0062242605  -0.0296567     -0.017943281    996.07267      73896.609    
    536000   536            1.0000514     -0.054063281    16.6376        1.5000625      21.108179      18.137662     -4.4705788      2170.5442      49.807648      47.887479      47.887479     -0.0727865     -0.035366625   -0.054036719   -0.018759859    0.025539274    0.0024439483   1003.5403      73887.525    
    540000   540            1.0004928     -0.029070321    16.637582      1.5007245      21.110197      18.138306     -4.4726154      2124.6735      49.81735       47.859955      47.859955     -0.06700696    -0.042728311    0.022524308    0.016027564   -0.029210185    0.026867803    1010.9561      73874.683    
    544000   544            1.0016201     -0.0031256817   16.630003      1.5024154      21.106901      18.132418     -4.4768984      2748.0277      49.827051      47.867958      47.867958      0.004380803   -0.035131295    0.021373447    0.023696884   -0.012334486   -0.038691638    1018.4547      73867.917    
    548000   548            0.99764662    -0.050105113    16.627106      1.4964553      21.101826      18.123561     -4.4747203      3675.8021      49.836753      47.856659      47.856659     -0.049078658   -0.029487666   -0.071749014   -0.050916448   -0.0069727778  -0.020057562    1025.8195      73851.514    
    552000   552            1.0036447      0.030079703    16.627069      1.5054523      21.108195      18.132522     -4.481126       2777.1999      49.846454      47.829756      47.829756      0.099016229    0.015971666   -0.024748786   -0.021018307   -0.038985043   -0.01012446     1033.405       73851.017    
    556000   556            1.0050499      0.023465395    16.628352      1.5075601      21.107366      18.135912     -4.4790144      2449.7098      49.856156      47.830743      47.830743     -0.02426142     0.068126109    0.026531496   -0.030757486   -0.049241341    0.007292478    1040.9206      73845.452    
    560000   560            1.0009263      0.0071401693   16.643463      1.5013747      21.108642      18.144838     -4.465179       1555.0247      49.865857      47.866901      47.866901     -0.020095829    0.12379357    -0.082277233    0.025629815    0.0095250282  -0.044336333    1048.5796      73849.962    
    564000   564            1.0002581     -0.042024253    16.633042      1.5003725      21.103588      18.133415     -4.4705458      2745.523       49.875559      47.860037      47.860037     -0.022675413   -0.042169949   -0.061227398   -0.057910223    0.0034984441  -0.039166248    1056.1812      73850.286    
    568000   568            1.0019847      0.02692305     16.633222      1.5029624      21.106071      18.136184     -4.4728497      2481.638       49.88526       47.841102      47.841102      0.071280457   -0.049510969    0.058999664    0.01761092    -0.01158924    -0.049262035    1063.7341      73847.118    
    572000   572            1.0026272     -0.020795404    16.639679      1.5039262      21.111496      18.143605     -4.4718175      1741.0152      49.894962      47.843481      47.843481     -0.0060970017  -0.0036221551  -0.052667055   -0.015463587   -0.0049647027  -0.02431857     1071.3776      73850.132    
    576000   576            0.99829245    -0.013534786    16.641695      1.4974241      21.110744      18.139119     -4.4690485      2220.653       49.904663      47.838547      47.838547     -0.042656766   -0.014197377    0.016249784   -0.010591793    0.0036094949   0.039147042    1078.9512      73848.215    
    580000   580            0.99721361    -0.058006942    16.63439       1.4958058      21.103742      18.130195     -4.4693527      3154.9323      49.914365      47.824752      47.824752     -0.076751175   -0.072624372   -0.024645279    0.015322154   -0.035786106    0.014886914    1086.2552      73827.896    
    584000   584            0.99217721    -0.035558117    16.635356      1.4882513      21.104551      18.123607     -4.4691951      3850.2985      49.924067      47.844256      47.844256     -0.035086279   -0.062364617   -0.0092234533   0.0058934176  -0.013286569    0.013807427    1093.7989      73823.932    
    588000   588            1.0007078     -0.052713819    16.637153      1.501047       21.107644      18.1382       -4.4704908      2374.4853      49.933768      47.840666      47.840666     -0.076857697   -0.01721102    -0.064072742    0.022766798   -0.0079811816   0.02328257     1101.0842      73802.605    
    592000   592            0.99971022    -0.0024376914   16.64286       1.4995507      21.109915      18.142411     -4.4670548      1963.3975      49.94347       47.838507      47.838507      0.016193677   -0.0057786557  -0.017728095    0.00040055457 -0.03207488     0.0035744515   1108.613       73797.668    
    596000   596            1.0001276      0.026151455    16.629914      1.5001767      21.108108      18.130091     -4.4781942      3246.0251      49.953171      47.780203      47.780203      0.013733215    0.021730631    0.042990519    0.016146937   -0.0038750578  -0.053963863    1116.2366      73798.969    
    600000   600            0.99740979    -0.0040317521   16.637579      1.4961001      21.105596      18.133679     -4.4680178      2898.7242      49.962873      47.801029      47.801029     -0.045953573    0.017359289    0.016499028   -0.029964087   -0.020741188    0.0074004909   1123.8393      73798.779    
    604000   604            0.99995104     0.045310643    16.639894      1.4999119      21.108801      18.139806     -4.4689074      2290.653       49.972574      47.803983      47.803983      0.03856711     0.041801469    0.055563349    0.00087771553  0.02608778     0.01987136     1131.3731      73793.996    
    608000   608            0.9995141      0.010395818    16.633212      1.4992565      21.105568      18.132468     -4.4723559      3062.781       49.982276      47.781321      47.781321      0.00014335824  0.025165341    0.0058787544  -0.030314473   -0.024193168   -0.0038802046   1138.995       73794.887    
    612000   612            0.99943885     0.031968278    16.622439      1.4991437      21.104126      18.121583     -4.4816876      4198.2753      49.991977      47.758344      47.758344      0.062658848    0.024358128    0.0088878581  -0.018023155    0.031807912    0.0030738189   1146.4337      73783.874    
    616000   616            1.0020185      0.015611157    16.633981      1.5030131      21.108708      18.136994     -4.4747273      2638.7551      50.001679      47.776547      47.776547      0.02475034     0.041916285   -0.019833155    0.046057071   -0.018135781   -0.0063281528   1153.835       73770.516    
    620000   620            1.003678       0.055263152    16.634626      1.5055023      21.108994      18.140129     -4.4743674      2337.3406      50.01138       47.765492      47.765492      0.013108601    0.06042213     0.092258726    0.0050546879  -0.036839946    0.016301007    1161.3112      73761.989    
    624000   624            0.99893908     0.031967659    16.630561      1.498394       21.109351      18.128955     -4.4787902      3502.8334      50.021082      47.754025      47.754025      0.06472028     0.009486193    0.021696505   -0.0019101702  -0.047660747   -0.050710445    1168.9637      73764.608    
    628000   628            1.003862      -0.037115853    16.634035      1.5057784      21.109488      18.139813     -4.4754532      2409.9959      50.030783      47.758623      47.758623     -0.078690823   -0.045610714    0.012953979   -0.026703858   -0.040948822    0.032083873    1176.4748      73758.224    
    632000   632            1.0019397      0.032149087    16.63576       1.5028948      21.109103      18.138655     -4.4733428      2549.2071      50.040485      47.752676      47.752676      0.017951785    0.075690665    0.002804811    0.010614306    0.024051277    0.031781474    1184.0507      73755.866    
    636000   636            1.0005437      0.01201417     16.629902      1.5008009      21.108897      18.130703     -4.4789948      3384.5344      50.050186      47.741904      47.741904      0.013386466   -0.012033831    0.034689876    0.017086921   -0.023697885    0.032774136    1191.5595      73749.287    
    640000   640            1.0060166      0.025323685    16.637085      1.5090102      21.105567      18.146096     -4.4684815      1826.8119      50.059888      47.762065      47.762065     -0.01998665     0.051783426    0.044174277   -0.023608126   -0.050396772   -0.0077179465   1199.0193      73739.687    
    644000   644            0.99877404     0.010960089    16.63927       1.4981464      21.103917      18.137416     -4.4646479      2736.3136      50.069589      47.768346      47.768346     -0.017245635    0.042308573    0.0078173277   0.037418657   -0.00060333006 -0.002954075    1206.3782      73723.944    
    648000   648            1.0013818      0.0096856774   16.631185      1.5020581      21.104631      18.133243     -4.4734454      3184.164       50.079291      47.722167      47.722167     -0.0086767633   0.044665803   -0.0069320076  -0.0041618685   0.012847349    0.037449794    1213.8113      73712.814    
    652000   652            0.99983906     0.013884668    16.621662      1.499744       21.107329      18.121406     -4.4856671      4417.5183      50.088992      47.682205      47.682205      0.040420909    0.029931627   -0.028698531   -0.0072926298   0.018257931   -0.005802536    1221.354       73708.342    
    656000   656            1.0037133      0.015846689    16.629384      1.5055553      21.104614      18.134939     -4.47523        3050.3919      50.098694      47.712965      47.712965     -0.012508101    0.081807674   -0.021759506   -0.029079752   -0.0085714927   0.025862168    1228.8198      73699.22     
    660000   660            1.0048934      0.049067836    16.633472      1.5073254      21.107347      18.140797     -4.4738751      2470.5075      50.108396      47.728935      47.728935      7.9513619e-05  0.075145592    0.071978402    0.0082920509  -0.041239312    0.018665247    1236.4562      73700.284    
    664000   664            1.0014467      0.013724492    16.636063      1.5021554      21.106108      18.138219     -4.4700446      2754.8907      50.118097      47.73087       47.73087       0.024456034    0.0065265231   0.010190919   -0.0060142415  -0.01333877    -0.0040672519   1244.0464      73698.509    
    668000   668            0.99958265     0.031334388    16.630474      1.4993593      21.109937      18.129833     -4.4794628      3634.9877      50.127799      47.684941      47.684941      0.024699284    0.064472332    0.0048315496  -0.045249018    0.0025308778  -0.020400718    1251.4009      73682.786    
    672000   672            1.0032727      0.03911205     16.635028      1.5048943      21.107558      18.139922     -4.4725305      2620.5879      50.1375        47.699323      47.699323      0.0223582      0.07337105     0.0216069      2.6843424e-05 -0.030298628   -0.050336681    1259.0931      73686.924    
    676000   676            1.0026819      0.1075475      16.639187      1.5040082      21.106815      18.143195     -4.4676275      2305.4032      50.147202      47.696906      47.696906      0.10304032     0.087987113    0.13161508    -0.0095800234  -0.0097526389   0.021262423    1266.4486      73671.341    
    680000   680            1.0029853     -0.015264282    16.629931      1.5044633      21.104929      18.134394     -4.4749983      3227.2985      50.156903      47.696058      47.696058     -0.033857951   -0.059404239    0.047469343    0.032795957   -0.0020069712   0.0017831285   1273.9355      73663.446    
    684000   684            1.0037348     -0.011115597    16.632868      1.5055874      21.106268      18.138456     -4.4733999      2831.0501      50.166605      47.697042      47.697042      0.0098660419  -0.0317437     -0.011469132    0.010311457   -0.0098673604  -0.00206417     1281.5674      73663.896    
    688000   688            0.99566365     0.0032490797   16.639468      1.4934809      21.108732      18.132949     -4.469264       3415.6782      50.176306      47.722332      47.722332     -0.016772533    0.035354929   -0.0088351569  -0.013745868   -0.0020619741  -0.033326798    1288.9078      73647.593    
    692000   692            0.99815887     0.0010926468   16.636863      1.4972237      21.107475      18.134086     -4.4706124      3319.3518      50.186008      47.714595      47.714595      0.0032556106   0.0010888771  -0.0010665472   0.02483723     0.020592121   -0.013388539    1296.3945      73639.704    
    696000   696            0.99787216    -0.019247011    16.647361      1.4967936      21.10691       18.144155     -4.4595484      2307.9009      50.195709      47.746138      47.746138     -0.072806569   -0.011556222    0.026621758   -0.0057499768   0.025858681   -0.0139706      1303.9338      73634.789    
    700000   700            0.99714436    -0.059318289    16.638566      1.4957019      21.105175      18.134268     -4.4666087      3341.4158      50.205411      47.709201      47.709201     -0.052051866   -0.073414487   -0.052488514   -0.048921498   -0.00091156992  0.0091447491   1311.4751      73629.958    
    704000   704            1.0031006     -0.037154315    16.625485      1.5046362      21.105766      18.130121     -4.4802811      3786.0926      50.215112      47.66697       47.66697      -0.026745457   -0.03675819    -0.047959299    0.0047969474  -0.012950942   -0.0029485132   1318.9311      73620.338    
    708000   708            1.0048995      0.010515172    16.634605      1.5073346      21.106667      18.14194      -4.472062       2594.5823      50.224814      47.684792      47.684792     -0.01865884     0.07445375    -0.024249392    0.0027516326  -0.029253156   -0.0072011068   1326.6054      73622.85     
    712000   712            1.0021643     -0.0067304021   16.641629      1.5032318      21.105815      18.144861     -4.4641861      2315.1849      50.234515      47.717309      47.717309      0.028978121   -0.078562727    0.029393399    0.0028475427  -0.051535326   -0.00038541625  1333.9457      73606.822    
    716000   716            0.99840885    -0.02199666     16.635894      1.4975987      21.104533      18.133493     -4.4686384      3499.8387      50.244217      47.690527      47.690527     -0.036515316   -0.012581631   -0.016893033    0.060955      -0.010967246   -0.022066634    1341.4179      73598.132    
    720000   720            0.9978241      0.039412355    16.630587      1.4967215      21.103678      18.127309     -4.4730907      4153.5611      50.253918      47.667675      47.667675      0.033122745    0.012044718    0.073069602   -0.02224711     0.0094940646  -0.0004283851   1348.7975      73584.399    
    724000   724            0.99698271    -0.082502821    16.63737       1.4954595      21.106835      18.132829     -4.4694651      3607.2335      50.26362       47.684472      47.684472     -0.11732631    -0.028061225   -0.10212093     0.0011134494  -0.0023263765  -0.048427744    1356.337       73579.409    
    728000   728            0.99790085    -0.064071056    16.645708      1.4968367      21.107413      18.142545     -4.4617045      2631.8818      50.273322      47.711211      47.711211     -0.071464144   -0.0100021     -0.11074692     0.020113598    0.033684891    0.052637334    1363.88        73574.584    
    732000   732            0.99689784     0.0010783884   16.637424      1.4953322      21.106535      18.132756     -4.4691112      3655.292       50.283023      47.678017      47.678017     -0.011690767    0.030644644   -0.015718712    0.0090898643  -0.026053769   -0.003487656    1371.6009      73579.27     
    736000   736            1.0004597      0.036938454    16.630182      1.5006748      21.104325      18.130857     -4.4741424      3869.5755      50.292725      47.624178      47.624178      0.081642604   -0.012501127    0.041673886    0.034382047   -0.0091043532  -0.019325568    1379.145       73574.39     
    740000   740            1.004447      -0.021525265    16.637175      1.5066558      21.106727      18.143831     -4.469551       2559.7424      50.302426      47.653706      47.653706      0.015995247   -0.0064657104  -0.07410533     0.044412265    0.031314001   -0.046429839    1386.662       73568.043    
    744000   744            1.004328       0.0019261483   16.631633      1.5064773      21.105507      18.13811      -4.4738742      3165.8438      50.312128      47.634324      47.634324      0.018485847   -0.00043576759 -0.012271634   -0.00083661442  0.032255482   -0.02236725     1394.0882      73556.89     
    748000   748            0.99741025     0.06299994     16.635754      1.4961008      21.107625      18.131855     -4.4718703      3827.2858      50.321829      47.613414      47.613414      0.096031676    0.022271003    0.070697142    0.0079950313  -0.027169613    0.019561645    1401.6984      73555.437    
    752000   752            1.0000125      0.0023290958   16.6382        1.500004       21.108258      18.138204     -4.4700584      3196.2067      50.331531      47.644092      47.644092      0.0098704769  -0.020163557    0.017280368    0.011763106    0.0058677779  -0.018156796    1409.1447      73545.361    
    756000   756            1.0031155     -0.042586369    16.642254      1.5046585      21.1082        18.146912     -4.4659457      2323.5058      50.341232      47.644741      47.644741     -0.051000758   -0.023714401   -0.053043949    0.0062710511  -0.028400034    0.0021453116   1416.5783      73534.656    
    760000   760            0.99616344     0.065343076    16.642239      1.4942306      21.110232      18.136469     -4.467993       3413.8282      50.350934      47.632244      47.632244      0.051432986    0.07327117     0.071325071   -0.0086352086   0.0093789765  -0.013269058    1424.0154      73524.164    
    764000   764            0.9974059     -0.0057667048   16.637499      1.4960943      21.10512       18.133593     -4.4676217      3728.4655      50.360635      47.635837      47.635837      0.039576498   -0.034341668   -0.022534944   -0.080313397    0.036920912   -0.0072139448   1431.6048      73521.527    
    768000   768            1.0013232      0.0032049771   16.645597      1.5019701      21.107508      18.147567     -4.4619113      2316.2971      50.370337      47.63131       47.63131      -0.0058345207  -0.021716285    0.037165737    0.013532323    0.0023752387  -0.0050477428   1439.1384      73515.988    
    772000   772            1.000401      -0.035844468    16.637338      1.5005869      21.108772      18.137924     -4.4714345      3324.65        50.380038      47.610572      47.610572     -0.038220546   -0.028444606   -0.040868251    0.039530748   -0.0031627047   0.058101761    1446.5219      73502.797    
    776000   776            0.99896843    -0.026540185    16.637331      1.498438       21.110341      18.135769     -4.4730098      3565.6551      50.38974       47.596804      47.596804     -0.080044341   -0.009602463    0.010026249   -0.043522693   -0.025086041   -0.0029640366   1453.8664      73487.702    
    780000   780            1.0000295     -0.072800475    16.633859      1.5000296      21.104364      18.133889     -4.4705051      3778.1121      50.399441      47.610441      47.610441     -0.095035658   -0.050078766   -0.073287002    0.082848062    0.0079444844   0.013812165    1461.2087      73472.57     
    784000   784            0.99807508    -0.018830853    16.63564       1.497098       21.102972      18.132738     -4.4673317      3915.8323      50.409143      47.624795      47.624795     -0.06868376    -0.0055733317   0.017764532    0.010659868   -0.084145768   -0.0044909099   1468.6494      73462.443    
    788000   788            0.99997886    -0.043169276    16.643364      1.4999537      21.10638       18.143318     -4.4630159      2851.3895      50.418844      47.627107      47.627107     -0.077564796   -0.052451728    0.00050869649 -0.022840774    0.0056372366  -0.013180727    1476.2096      73458.287    
    792000   792            1.0003853     -0.00080079528  16.630186      1.5005633      21.102893      18.130749     -4.4727069      4159.6591      50.428546      47.577946      47.577946      0.0087257028  -0.0025509522  -0.0085771365   0.024469493    0.013293476   -0.020853613    1483.7795      73454.579    
    796000   796            1.0015792      0.0058134994   16.630581      1.5023542      21.103503      18.132935     -4.4729225      3955.5462      50.438248      47.573235      47.573235      0.035439914    0.016681345   -0.034680761    0.02764453     0.0016230212   0.024789186    1491.3276      73449.757    
    800000   800            1.0032699      0.03617279     16.63806       1.5048902      21.106863      18.14295      -4.4688034      2949.2018      50.447949      47.581361      47.581361     -0.030546472    0.059181319    0.079883524    0.036537804    0.0045912191   0.025136727    1498.8125      73441.815    
    804000   804            1.000433       0.036378734    16.630605      1.5006349      21.104312      18.13124      -4.4737069      4169.1975      50.457651      47.576776      47.576776     -0.0088113457   0.03739566     0.080551887    0.016937337    0.03953758     0.04574986     1507.0041      73468.325    
    808000   808            1.0010726     -0.051826398    16.633532      1.5015943      21.106362      18.135126     -4.4728301      3791.2663      50.467352      47.574888      47.574888     -0.045562654   -0.0041567217  -0.10575982    -0.0088966725  -0.089885828    0.00450406     1514.3945      73455.632    
    812000   812            1.0028947     -0.038150517    16.638559      1.5043274      21.106167      18.142887     -4.4676079      3015.8321      50.477054      47.581182      47.581182     -0.020478864   -0.059382765   -0.034589921   -0.030325769   -0.004555614   -0.021304901    1521.8057      73443.992    
    816000   816            1.0027395      0.019996592    16.631129      1.5040946      21.106906      18.135224     -4.4757762      3821.2432      50.486755      47.547577      47.547577     -0.015403511    0.034224185    0.041169101    0.022251387    0.0040201858   0.033496647    1529.3202      73437.357    
    820000   820            0.99831283    -0.046394455    16.632764      1.4974546      21.105883      18.130219     -4.4731185      4354.4581      50.496457      47.549425      47.549425     -0.058662456   -0.042984857   -0.037536051    0.045618699    0.0046184636   0.026483348    1536.6606      73422.393    
    824000   824            1.0000604      0.021945679    16.639288      1.5000759      21.108529      18.139364     -4.4692406      3437.1413      50.506158      47.54412       47.54412       0.057448224    0.01274422    -0.0043554078  -0.013848842   -0.047174801    0.0030061417   1543.9948      73407.209    
    828000   828            1.0025932     -0.029944873    16.632501      1.5038751      21.106898      18.136377     -4.4743968      3763.4139      50.51586       47.541096      47.541096     -0.044855419    0.041095877   -0.086075077   -0.020288376    0.020452443   -0.0015242229   1551.4779      73399.145    
    832000   832            0.99505716    -0.00043233855  16.633198      1.4925712      21.106761      18.125769     -4.4735627      4870.4402      50.525561      47.524912      47.524912      0.030225965   -0.0083716748  -0.023151306    0.025730728   -0.046295857    0.019860671    1559.0226      73393.988    
    836000   836            1.0028054     -0.035811295    16.635257      1.5041935      21.107755      18.13945      -4.4724978      3487.9386      50.535263      47.533444      47.533444      0.030733981   -0.083220523   -0.054947344   -0.073587939   -0.023928809    0.012490795    1566.3296      73377.673    
    840000   840            1.0003165     -0.035227898    16.638704      1.5004601      21.108942      18.139164     -4.4702384      3537.3468      50.544964      47.545049      47.545049      0.014517701   -0.10639488    -0.013806515    0.016213635    0.013300258   -0.0078594754   1574.1192      73383.939    
    844000   844            0.99880165    -0.0089640528   16.628505      1.4981879      21.103437      18.126693     -4.4749321      4835.3564      50.554666      47.510566      47.510566     -0.0075278844   0.014880854   -0.034245128   -0.017343968   -0.0045619045  -0.037840699    1581.5675      73374.238    
    848000   848            0.99333756     0.0052334546   16.640698      1.4899918      21.106854      18.13069      -4.4661563      4445.2656      50.564367      47.540933      47.540933     -0.04022435     0.086472785   -0.030548071    0.0043773768   0.037517579   -0.0058512677   1588.9195      73360.113    
    852000   852            0.99723069    -0.07340394     16.64222       1.4958314      21.107252      18.138052     -4.465032       3710.8362      50.574069      47.558529      47.558529     -0.11139317    -0.074200627   -0.034618022    0.014057413   -0.022084739    0.00093528871  1596.2188      73343.633    
    856000   856            1.0015179      0.036624839    16.640844      1.5022622      21.105679      18.143107     -4.4648343      3212.3719      50.58377       47.528537      47.528537     -0.055057441    0.01842277     0.14650919     0.003582785    0.0024048529   0.067429218    1603.7904      73339.686    
    860000   860            0.99903268    -0.018578224    16.628348      1.4985344      21.108487      18.126883     -4.4801393      4895.2667      50.593472      47.462903      47.462903     -0.024553737    0.0368152     -0.067996134   -0.014481947    0.022844273   -0.024822917    1611.269       73331.477    
    864000   864            1.0002809     -0.021609019    16.634897      1.5004068      21.107529      18.135304     -4.472632       4052.1405      50.603174      47.494123      47.494123     -0.051861076   -0.017465543    0.0044995628   0.0013497883   0.016994318   -0.015287608    1618.7641      73324.02     
    868000   868            1.0042761      0.028013357    16.634164      1.5063994      21.106125      18.140563     -4.4719615      3532.8807      50.612875      47.506173      47.506173      0.0062781328   0.021407532    0.056354407    0.0089321355   0.0049281032   0.00024181856  1626.2001      73313.898    
    872000   872            1.0012986     -0.027763053    16.62835       1.5019332      21.106861      18.130283     -4.4785107      4606.5384      50.622577      47.471903      47.471903     -0.010900782   -0.03291657    -0.039471807    0.014245366   -0.030743001   -0.037683335    1633.7865      73310.55     
[...]
  39768000   39768          0.99978971    -0.14567404     16.650401      1.4996699      21.105268      18.150071     -4.4548673      124648.82      144.96024      28.123719      28.123719     -0.33207081    -0.062904996   -0.042046319    0.01749695    -0.015958054   -0.033703231    87408.993      509.92975    
  39772000   39772          0.99772456    -0.15910994     16.644857      1.4965722      21.104831      18.141429     -4.459974       125544.07      144.96994      28.109319      28.109319     -0.38214913    -0.060229592   -0.034951094   -0.012900807   -0.02690994    -0.010307479    87419.477      501.14756    
  39776000   39776          0.99377844    -0.10412977     16.645289      1.4906531      21.106404      18.135942     -4.4611154      126116.09      144.97964      28.101087      28.101087     -0.30761402     0.024594658   -0.029369939    0.03514028    -0.057185114   -0.025297942    87430.163      492.36616    
  39780000   39780          0.99731581    -0.13128979     16.649777      1.4959591      21.104232      18.145737     -4.4544543      125121.94      144.98935      28.114272      28.114272     -0.37324615     0.048936299   -0.069559521   -0.028468161   -0.014049762    0.014852454    87440.622      483.58313    
  39784000   39784          0.99575535    -0.096825102    16.655656      1.4936184      21.11074       18.149274     -4.4550848      124769.43      144.99905      28.102864      28.102864     -0.35016746     0.0045238112   0.055168343   -0.012498319   -0.023753273    0.0065903098   87451.065      474.79967    
  39788000   39788          0.9969662     -0.092488773    16.640463      1.4954347      21.107693      18.135898     -4.4672306      126149.99      145.00875      28.081668      28.081668     -0.29096402    -0.0089161915   0.022413892    0.021700113    0.04625414    -0.007674627    87461.69       466.01685    
  39792000   39792          1.0009663     -0.083706523    16.647408      1.5014347      21.108413      18.148843     -4.4610051      124832.85      145.01845      28.092346      28.092346     -0.34119153     0.049653164    0.040418799    0.015268859   -0.0068152144   0.0075855931   87472.034      457.23219    
  39796000   39796          1.0053063     -0.10079952     16.64171       1.5079447      21.108501      18.149655     -4.4667913      124759.25      145.02815      28.073461      28.073461     -0.36465039     0.051051568    0.011200253   -0.040445335    0.0093662677   0.0025756859   87482.482      448.44774    
  39800000   39800          1.0030042     -0.078245909    16.641133      1.5044916      21.103725      18.145624     -4.4625923      125181.83      145.03785      28.079154      28.079154     -0.31288536     0.022651046    0.055496588    0.032136941   -0.0038001766   0.00027192147  87492.753      439.66207    
  39804000   39804          1.0040736     -0.08052939     16.653668      1.5060957      21.113031      18.159764     -4.4593627      123742.66      145.04756      28.091879      28.091879     -0.32940619     0.075228147    0.012589871   -0.023558335   -0.037619012   -0.019354769    87503.253      430.87724    
  39808000   39808          1.0019999     -0.081357114    16.647237      1.5029851      21.10855       18.150222     -4.4613129      124730.35      145.05726      28.081687      28.081687     -0.33526288     0.039126312    0.052065227    0.011549093    0.0043619254   0.0044987323   87513.593      422.09128    
  39812000   39812          0.9997835     -0.12597539     16.645814      1.4996606      21.110039      18.145475     -4.4642255      125226.58      145.06696      28.076369      28.076369     -0.38864263     0.0074171086   0.0032993478  -0.035884579   -0.018128322    0.070706634    87523.966      413.30518    
  39816000   39816          0.99772564    -0.11438219     16.642149      1.4965739      21.107312      18.138723     -4.4651632      125928.03      145.07666      28.076039      28.076039     -0.37166414    -8.6158896e-05  0.028603722    0.019926563    0.022778174   -0.046457164    87534.177      404.518      
  39820000   39820          0.99619924    -0.14886242     16.652342      1.4942843      21.109889      18.146626     -4.4575471      125127.81      145.08636      28.091071      28.091071     -0.35629205    -0.017614797   -0.072680406    0.0081588114   0.015087023    0.0024348128   87544.326      395.73025    
  39824000   39824          1.0016324     -0.11480752     16.646562      1.5024339      21.108403      18.148996     -4.461841       124894.44      145.09606      28.091556      28.091556     -0.27671267    -0.033325065   -0.034384837    0.017306515   -0.030916629   -0.031403166    87554.535      386.9425     
  39828000   39828          1.0002549     -0.092605852    16.635007      1.5003676      21.103589      18.135375     -4.468582       126300.12      145.10576      28.068836      28.068836     -0.38406639     0.069379122    0.036869709    0.040461812   -0.015280231    0.012114491    87564.917      378.15521    
  39832000   39832          0.99933953    -0.12659572     16.645628      1.4989947      21.112153      18.144622     -4.4665258      125362.27      145.11547      28.07013       28.07013      -0.34211031    -0.023378426   -0.014298434    0.028216693    0.016598454    0.027793765    87575.383      369.36796    
  39836000   39836          1.0029854     -0.11873625     16.641888      1.5044635      21.107725      18.146351     -4.4658372      125194.6       145.12517      28.069081      28.069081     -0.37991647     0.013440072    0.010267646    0.0039605202   0.01087313    -0.037890404    87585.604      360.57935    
  39840000   39840          0.99834582    -0.06414644     16.634496      1.4975041      21.107635      18.132        -4.4731386      126675.01      145.13487      28.060183      28.060183     -0.32298235     0.072291555    0.058251475    0.022134949    0.0021294149   0.02019996     87596.002      351.79117    
  39844000   39844          0.99633574    -0.14175595     16.643073      1.494489       21.108016      18.137562     -4.4649437      126114.84      145.14457      28.07462       28.07462      -0.39655757     0.01456964    -0.043279937   -0.022203024    0.038752869    0.014301815    87606.416      343.00273    
  39848000   39848          0.9984258     -0.1325527      16.650947      1.4976241      21.110102      18.148571     -4.4591557      124995.91      145.15427      28.080969      28.080969     -0.3573603     -0.04850761     0.0082098073   0.037030635   -0.0069444693  -0.0040666259   87616.773      334.21375    
  39852000   39852          1.0014002     -0.11475993     16.645507      1.5020857      21.106756      18.147593     -4.4612492      125105.48      145.16397      28.077375      28.077375     -0.31985775    -0.022952136   -0.0014699133   0.0026347303   0.0021201808  -0.00043087656  87627.028      325.42407    
  39856000   39856          1.0008524     -0.11906554     16.63449       1.501264       21.104798      18.135754     -4.4703079      126328.48      145.17367      28.065599      28.065599     -0.37633785     0.044704422   -0.025563185    0.044893522    0.010723944    0.020628872    87637.47       316.63478    
  39860000   39860          1.0003298     -0.12440063     16.648217      1.50048        21.106841      18.148697     -4.4586236      125011.68      145.18338      28.088848      28.088848     -0.37075298     0.0058945225  -0.0083434453  -0.025710288   -0.0037199867  -0.070584542    87647.87       307.845      
  39864000   39864          1.0001206     -0.12405448     16.649668      1.5001662      21.110153      18.149834     -4.4604853      124904.89      145.19308      28.080232      28.080232     -0.34790911    -0.0071396594  -0.017114671    0.015087057   -0.0060161048   0.0054660711   87658.043      299.05413    
  39868000   39868          0.99657945    -0.10110268     16.641969      1.4948546      21.109301      18.136823     -4.4673323      126247.78      145.20278      28.064262      28.064262     -0.31754175     0.027582092   -0.013348372    0.016139306   -0.033252684   -0.0070525376   87668.464      290.2638     
  39872000   39872          0.99690091    -0.069870043    16.643588      1.4953368      21.110513      18.138925     -4.4669247      126042.02      145.21248      28.053172      28.053172     -0.30217336     0.064195037    0.0283682      0.02145598    -0.037171625   -0.0052113504   87678.977      281.47344    
  39876000   39876          1.0021434     -0.13108674     16.644818      1.5032005      21.105463      18.148018     -4.4606456      125119.32      145.22218      28.073169      28.073169     -0.34567144    -0.02686829    -0.02072048     0.034325382   -0.0088197936  -0.012880969    87689.391      272.68243    
  39880000   39880          1.0044206     -0.091021649    16.657488      1.5066161      21.109111      18.164105     -4.4516225      123480.61      145.23188      28.094088      28.094088     -0.35918988     0.018852194    0.067272737    0.0094829894   0.041598853    0.036171881    87699.776      263.891      
  39884000   39884          1.0043944     -0.14580048     16.654178      1.5065769      21.110182      18.160755     -4.4560033      123833.63      145.24159      28.088163      28.088163     -0.42809664     0.00048774304 -0.0097925569  -0.0057388441   0.014470399    0.014158787    87709.957      255.09866    
  39888000   39888          1.0011015     -0.069264306    16.645543      1.5016375      21.108562      18.14718      -4.4630191      125234.79      145.25129      28.065213      28.065213     -0.33635451    -0.012697075    0.14125867     0.023513672   -0.015009005    0.073219152    87720.22       246.30627    
  39892000   39892          1.0028453     -0.1240971      16.643375      1.5042533      21.108689      18.147628     -4.465314       125198.56      145.26099      28.065125      28.065125     -0.37446417    -0.033626143    0.035799006    0.013123756    0.0036294398   0.020976016    87730.289      237.51306    
  39896000   39896          1.0053184     -0.14846288     16.652849      1.5079628      21.112426      18.160812     -4.4595763      123857.43      145.27069      28.076756      28.076756     -0.39844432    -0.05170679     0.0047624744  -0.0106729      0.029119159    0.014227672    87740.708      228.72051    
  39900000   39900          1.0014043     -0.1224098      16.642358      1.5020918      21.109998      18.144449     -4.4676407      125543.78      145.28039      28.056931      28.056931     -0.31927652    -0.061282496    0.013329615    0.036053738    0.0074169939  -0.0058318019   87751.347      219.92819    
  39904000   39904          1.0014672     -0.096540005    16.638789      1.5021862      21.107026      18.140975     -4.4682366      125909.39      145.29009      28.056004      28.056004     -0.30207537     0.012061687    0.00039367194  0.002014296   -0.02505944    -0.037759818    87761.741      211.1349     
  39908000   39908          1.0002558     -0.13938486     16.648926      1.500369       21.107396      18.149295     -4.4584701      125066.48      145.29979      28.065501      28.065501     -0.33699104    -0.040323623   -0.040839925   -0.02176074    -0.020003212   -0.011294181    87772.077      202.34116    
  39912000   39912          1.0050259     -0.13840836     16.646751      1.5075241      21.109767      18.154275     -4.4630159      124565.88      145.3095       28.06859       28.06859      -0.39876383     0.030586838   -0.047048089   -0.017119749    0.0074348608   0.0031393094   87782.588      193.5475     
  39916000   39916          0.99702073    -0.18095397     16.643898      1.4955165      21.10769       18.139414     -4.4637921      126098.73      145.3192       28.062355      28.062355     -0.42799054    -0.062415284   -0.052456075    0.0087552882   0.0030107758  -0.025265498    87792.832      184.75293    
  39920000   39920          0.99741281    -0.1359456      16.649218      1.4961046      21.106807      18.145322     -4.4575897      125502.84      145.3289       28.082727      28.082727     -0.38545275    -0.0045577868  -0.017826261   -0.024573184   -0.014882532   -0.0070246912   87803.125      175.95817    
  39924000   39924          0.9968732     -0.083878387    16.655816      1.4952952      21.110753      18.151111     -4.4549367      124919.32      145.3386       28.070608      28.070608     -0.36522597     0.058472751    0.055118062    0.016355516   -0.03622864    -0.022599044    87813.902      167.16402    
  39928000   39928          0.99735186    -0.12148894     16.640462      1.4960132      21.10711       18.136475     -4.4666488      126428.84      145.3483       28.053577      28.053577     -0.36516034    -0.053895494    0.054589021    0.016194305    0.029885956   -0.023916386    87824.441      158.36906    
  39932000   39932          0.99735023    -0.091220505    16.64867       1.4960107      21.109071      18.144681     -4.4604015      125597.34      145.358        28.049219      28.049219     -0.39910217     0.030951831    0.094488822   -0.0017163194  -0.018719215    0.00046210408  87834.74       149.57333    
  39936000   39936          1.001916      -0.11140317     16.65274       1.5028593      21.110699      18.155599     -4.4579592      124488.05      145.36771      28.066686      28.066686     -0.32737094    -0.012148146    0.005309565    0.030998776   -0.030798825    0.0081054205   87845.191      140.77755    
  39940000   39940          1.0037842     -0.13998141     16.645614      1.5056616      21.106206      18.151276     -4.4605922      124940.55      145.37741      28.065566      28.065566     -0.36542013    -0.10058214     0.046058052    0.01373177     0.0093976146   0.013481673    87855.612      131.98139    
  39944000   39944          0.9977449     -0.082845022    16.646678      1.4966028      21.104188      18.143281     -4.4575097      125769.69      145.38711      28.054271      28.054271     -0.34220726     0.027688439    0.065983758   -0.045214372    0.027490398   -0.011379383    87866.068      123.18495    
  39948000   39948          0.99744168    -0.15912291     16.643025      1.4961479      21.108707      18.139173     -4.4656824      126200.31      145.39681      28.050906      28.050906     -0.34711922    -0.1126307     -0.017618808    0.0091480079  -0.0042411878   0.030160331    87876.425      114.38806    
  39952000   39952          0.99823033    -0.080701498    16.642669      1.4973309      21.107769      18.14         -4.4651001      126124.98      145.40651      28.053231      28.053231     -0.28540761     0.014723392    0.028579728    0.0060366216   0.0040042886  -0.013163798    87886.756      105.59082    
  39956000   39956          0.99781843    -0.10625641     16.653952      1.496713       21.108851      18.150665     -4.4548993      125041.94      145.41621      28.072455      28.072455     -0.33846518     0.010824459    0.008871485    0.0014179752   0.012075693    0.030349597    87897.105      96.793289    
  39960000   39960          1.0007597     -0.11532955     16.647795      1.5011249      21.10896       18.14892      -4.4611651      125230.16      145.42591      28.05441       28.05441      -0.3951031     -0.021762203    0.070876645   -0.031050683    0.032857776   -0.0016396865   87907.445      87.995441    
  39964000   39964          1.0001511     -0.084656687    16.640575      1.5002119      21.103987      18.140787     -4.4634117      126073.13      145.43562      28.042414      28.042414     -0.32513268     0.022743746    0.048418869    0.036895499    0.024163635    0.014924253    87917.824      79.197319    
  39968000   39968          0.9999214     -0.13565723     16.651274      1.4998675      21.113664      18.151141     -4.4623897      125021.98      145.44532      28.057542      28.057542     -0.41498178     0.0049165686   0.0030935228  -0.058067117   -0.0018303405  -0.0011656851   87928.273      70.398937    
  39972000   39972          0.99860418    -0.15221898     16.645955      1.4978917      21.108758      18.143847     -4.4628024      125779.08      145.45502      28.048159      28.048159     -0.39741937    -0.011619157   -0.047618403   -0.03231677    -0.01940103     0.038315204    87938.863      61.600324    
  39976000   39976          0.9977371     -0.18834722     16.641919      1.496591       21.107532      18.13851      -4.4656125      126335.69      145.46472      28.047492      28.047492     -0.46117956    -0.039856172   -0.064005918   -0.0031886552   0.041150145    0.014699167    87949.153      52.801172    
  39980000   39980          1.0002588     -0.12162391     16.649148      1.5003736      21.108885      18.149522     -4.4597362      125216.81      145.47442      28.05105       28.05105      -0.32635105    -0.054484306    0.015963622    0.046815919    0.00072758704  0.0039468792   87959.552      44.001777    
  39984000   39984          1.001959      -0.082088795    16.64996       1.5029238      21.109835      18.152884     -4.459875       124882.1       145.48412      28.045159      28.045159     -0.35554486     0.069264706    0.04001377    -0.002926934    0.01605884     0.010374965    87970.028      35.202092    
  39988000   39988          0.9994688     -0.14363494     16.63949       1.4991886      21.10609       18.138679     -4.4665998      126347.38      145.49383      28.024947      28.024947     -0.33814801    -0.01854004    -0.074216777   -0.020732689   -0.016402572    0.05696178     87980.385      26.402036    
  39992000   39992          1.0016862     -0.13485878     16.645865      1.5025146      21.106917      18.148379     -4.4610519      125362.94      145.50353      28.048424      28.048424     -0.40077909    -0.022804414    0.019007151   -0.03591561     0.046866616    0.012826671    87990.857      17.601692    
  39996000   39996          1.0006608     -0.12770616     16.652444      1.5009765      21.111689      18.15342      -4.4592457      124855.93      145.51323      28.05534       28.05534      -0.31383844    -0.039514266   -0.029765777    0.00045347165  0.0037201852   0.0038776539   88001.336      8.8010137    
  40000000   40000          1.0007682     -0.15384469     16.640299      1.5011377      21.107371      18.141437     -4.4670716      126093.71      145.52293      28.036309      28.036309     -0.38441446    -0.05961468    -0.017504928    0.029798638   -0.012216742   -0.00057767534  88011.578      0            
Loop time of 88011.6 on 18 procs for 40000000 steps with 102500 atoms

Performance: 39267.562 tau/day, 454.486 timesteps/s
93.1% CPU use with 18 MPI tasks x 1 OpenMP threads

MPI task timing breakdown:
Section |  min time  |  avg time  |  max time  |%varavg| %total
---------------------------------------------------------------
Pair    | 9874       | 10423      | 11897      | 503.4 | 11.84
Bond    | 11452      | 12145      | 14710      | 724.2 | 13.80
Neigh   | 263.53     | 289.02     | 305.73     |  73.2 |  0.33
Comm    | 16158      | 19756      | 20938      | 813.1 | 22.45
Output  | 936.32     | 936.39     | 936.42     |   0.1 |  1.06
Modify  | 41703      | 42168      | 42699      | 144.5 | 47.91
Other   |            | 2295       |            |       |  2.61

Nlocal:        5694.44 ave        5724 max        5643 min
Histogram: 1 0 0 2 3 3 1 2 2 4
Nghost:        9994.44 ave       10062 max        9945 min
Histogram: 3 0 3 4 1 2 3 1 0 1
Neighs:              0 ave           0 max           0 min
Histogram: 18 0 0 0 0 0 0 0 0 0

Total # of neighbors = 0
Ave neighs/atom = 0
Ave special neighs/atom = 6.627161
Neighbor list builds = 1331733
Dangerous builds = 0

# GENERATION RESTART
write_restart ./out.deform.restart
System init for write_restart ...
Generated 0 of 36 mixed pair_coeff terms from geometric mixing rule
write_data    ./out.deform.data pair ij
System init for write_data ...
Generated 0 of 36 mixed pair_coeff terms from geometric mixing rule
Total wall time: 24:26:54
